 Entering Gaussian System, Link 0=g16
 Input=/rds/general/user/gn116/home/work_n/Isotope/ZnDMA/ZnDMA_1_Freq_66.com
 Output=/rds/general/user/gn116/home/work_n/Isotope/ZnDMA/ZnDMA_1_Freq_66.log
 Initial command:
 /apps/gaussian/g16-a03/l1.exe "/tmp/pbs.2301269.pbs/Gau-511025.inp" -scrdir="/tmp/pbs.2301269.pbs/"
 Entering Link 1 = /apps/gaussian/g16-a03/l1.exe PID=    511026.
  
 Copyright (c) 1988,1990,1992,1993,1995,1998,2003,2009,2016,
            Gaussian, Inc.  All Rights Reserved.
  
 This is part of the Gaussian(R) 16 program.  It is based on
 the Gaussian(R) 09 system (copyright 2009, Gaussian, Inc.),
 the Gaussian(R) 03 system (copyright 2003, Gaussian, Inc.),
 the Gaussian(R) 98 system (copyright 1998, Gaussian, Inc.),
 the Gaussian(R) 94 system (copyright 1995, Gaussian, Inc.),
 the Gaussian 92(TM) system (copyright 1992, Gaussian, Inc.),
 the Gaussian 90(TM) system (copyright 1990, Gaussian, Inc.),
 the Gaussian 88(TM) system (copyright 1988, Gaussian, Inc.),
 the Gaussian 86(TM) system (copyright 1986, Carnegie Mellon
 University), and the Gaussian 82(TM) system (copyright 1983,
 Carnegie Mellon University). Gaussian is a federally registered
 trademark of Gaussian, Inc.
  
 This software contains proprietary and confidential information,
 including trade secrets, belonging to Gaussian, Inc.
  
 This software is provided under written license and may be
 used, copied, transmitted, or stored only in accord with that
 written license.
  
 The following legend is applicable only to US Government
 contracts under FAR:
  
                    RESTRICTED RIGHTS LEGEND
  
 Use, reproduction and disclosure by the US Government is
 subject to restrictions as set forth in subparagraphs (a)
 and (c) of the Commercial Computer Software - Restricted
 Rights clause in FAR 52.227-19.
  
 Gaussian, Inc.
 340 Quinnipiac St., Bldg. 40, Wallingford CT 06492
  
  
 ---------------------------------------------------------------
 Warning -- This program may not be used in any manner that
 competes with the business of Gaussian, Inc. or will provide
 assistance to any competitor of Gaussian, Inc.  The licensee
 of this program is prohibited from giving any competitor of
 Gaussian, Inc. access to this program.  By using this program,
 the user acknowledges that Gaussian, Inc. is engaged in the
 business of creating and licensing software in the field of
 computational chemistry and represents and warrants to the
 licensee that it is not a competitor of Gaussian, Inc. and that
 it will not use this program in any manner prohibited above.
 ---------------------------------------------------------------
  

 Cite this work as:
 Gaussian 16, Revision A.03,
 M. J. Frisch, G. W. Trucks, H. B. Schlegel, G. E. Scuseria, 
 M. A. Robb, J. R. Cheeseman, G. Scalmani, V. Barone, 
 G. A. Petersson, H. Nakatsuji, X. Li, M. Caricato, A. V. Marenich, 
 J. Bloino, B. G. Janesko, R. Gomperts, B. Mennucci, H. P. Hratchian, 
 J. V. Ortiz, A. F. Izmaylov, J. L. Sonnenberg, D. Williams-Young, 
 F. Ding, F. Lipparini, F. Egidi, J. Goings, B. Peng, A. Petrone, 
 T. Henderson, D. Ranasinghe, V. G. Zakrzewski, J. Gao, N. Rega, 
 G. Zheng, W. Liang, M. Hada, M. Ehara, K. Toyota, R. Fukuda, 
 J. Hasegawa, M. Ishida, T. Nakajima, Y. Honda, O. Kitao, H. Nakai, 
 T. Vreven, K. Throssell, J. A. Montgomery, Jr., J. E. Peralta, 
 F. Ogliaro, M. J. Bearpark, J. J. Heyd, E. N. Brothers, K. N. Kudin, 
 V. N. Staroverov, T. A. Keith, R. Kobayashi, J. Normand, 
 K. Raghavachari, A. P. Rendell, J. C. Burant, S. S. Iyengar, 
 J. Tomasi, M. Cossi, J. M. Millam, M. Klene, C. Adamo, R. Cammi, 
 J. W. Ochterski, R. L. Martin, K. Morokuma, O. Farkas, 
 J. B. Foresman, and D. J. Fox, Gaussian, Inc., Wallingford CT, 2016.
 
 ******************************************
 Gaussian 16:  ES64L-G16RevA.03 25-Dec-2016
                 2-Oct-2020 
 ******************************************
 %nprocshared=24
 Will use up to   24 processors via shared memory.
 %mem=88GB
 %chk=ZnDMA_1_Freq_66.chk
 ----------------------------------------------------------------------
 #p freq b3lyp/gen geom=connectivity gfprint integral=grid=ultrafine ps
 eudo=read scf=conver=9 scf=Maxcycle=40 EmpiricalDispersion=gd3bj
 ----------------------------------------------------------------------
 1/10=4,30=1,38=1,57=2/1,3;
 2/12=2,17=6,18=5,40=1/2;
 3/5=7,11=2,16=1,17=8,24=100,25=1,30=1,71=2,74=-5,75=-5,124=41,140=1/1,2,3;
 4//1;
 5/5=2,6=9,7=40,38=5,98=1/2;
 8/6=4,10=90,11=11/1;
 11/6=1,8=1,9=11,15=111,16=1/1,2,10;
 10/6=1/2;
 6/7=2,8=2,9=2,10=2,28=1/1;
 7/8=1,10=1,25=1/1,2,3,16;
 1/10=4,30=1/3;
 99//99;
 Leave Link    1 at Fri Oct  2 15:36:14 2020, MaxMem= 11811160064 cpu:               1.7 elap:               0.1
 (Enter /apps/gaussian/g16-a03/l101.exe)
 ---------------------------------------------------------------
 Frequency of ZnDMA complex using same criteria as TM - properly
 ---------------------------------------------------------------
 Symbolic Z-matrix:
 Charge = -1 Multiplicity = 1
 C                     2.91605  -1.12727  -0.86398 
 C                     2.77451  -0.68215   0.60434 
 C                     2.24585  -1.7236    1.62392 
 C                     1.39234  -0.57684   2.20423 
 C                     1.82937   1.62161   1.01891 
 C                     0.59769   2.40795   1.47542 
 C                    -0.65223   2.29066   0.58542 
 C                    -0.27632   2.63409  -0.88806 
 C                    -2.66124   0.92565   0.23559 
 C                    -3.45533  -0.22283   0.86381 
 C                    -2.80624  -1.61013   0.73672 
 C                    -2.27815  -1.79399  -0.70752 
 O                     1.8752   -0.95074  -1.59977 
 O                     3.98896  -1.64519  -1.17486 
 O                    -0.0644    1.62209  -1.66192 
 O                    -0.16297   3.82638  -1.16831 
 O                    -0.97784  -1.81808  -0.78289 
 O                    -3.0863   -1.86646  -1.62574 
 O                    -1.75122  -1.76406   1.68525 
 N                     1.59724   0.17869   0.93698 
 N                    -1.25395   0.95478   0.67961 
 H                     3.71302  -0.22609   0.94525 
 H                     1.64077  -2.49419   1.13757 
 H                     2.9788   -2.19138   2.28299 
 H                     0.34825  -0.77733   2.45866 
 H                     1.88832  -0.078     3.05096 
 H                     2.66322   1.8262    1.7143 
 H                     2.1417    1.95873   0.02462 
 H                     0.87402   3.46707   1.5004 
 H                    -1.36598   3.06098   0.9149 
 H                    -2.6743    0.8403   -0.85562 
 H                    -3.15775   1.87804   0.48621 
 H                    -3.62083  -0.02521   1.932 
 H                    -4.43578  -0.25445   0.37634 
 H                    -3.57326  -2.374     0.92373 
 Zn(Iso=66)            0.19033  -0.17905  -0.80501 
 H                     0.33829   2.11928   2.50547 
 H                    -1.20635   0.59612   1.63057 
 H                    -0.99427  -1.97933   1.09891 
 
 ITRead=  0  0  0  0  0  0  0  0  0  0  0  0  0  0  0  0  0  0  0  0
 ITRead=  0  0  0  0  0  0  0  0  0  0  0  0  0  0  0  0  0  0  0
 MicOpt= -1 -1 -1 -1 -1 -1 -1 -1 -1 -1 -1 -1 -1 -1 -1 -1 -1 -1 -1 -1
 MicOpt= -1 -1 -1 -1 -1 -1 -1 -1 -1 -1 -1 -1 -1 -1 -1 -1 -1 -1 -1
 NAtoms=     39 NQM=       39 NQMF=       0 NMMI=      0 NMMIF=      0
                NMic=       0 NMicF=      0.
                    Isotopes and Nuclear Properties:
 (Nuclear quadrupole moments (NQMom) in fm**2, nuclear magnetic moments (NMagM)
  in nuclear magnetons)

  Atom         1           2           3           4           5           6           7           8           9          10
 IAtWgt=          12          12          12          12          12          12          12          12          12          12
 AtmWgt=  12.0000000  12.0000000  12.0000000  12.0000000  12.0000000  12.0000000  12.0000000  12.0000000  12.0000000  12.0000000
 NucSpn=           0           0           0           0           0           0           0           0           0           0
 AtZEff=  -0.0000000  -0.0000000  -0.0000000  -0.0000000  -0.0000000  -0.0000000  -0.0000000  -0.0000000  -0.0000000  -0.0000000
 NQMom=    0.0000000   0.0000000   0.0000000   0.0000000   0.0000000   0.0000000   0.0000000   0.0000000   0.0000000   0.0000000
 NMagM=    0.0000000   0.0000000   0.0000000   0.0000000   0.0000000   0.0000000   0.0000000   0.0000000   0.0000000   0.0000000
 AtZNuc=   6.0000000   6.0000000   6.0000000   6.0000000   6.0000000   6.0000000   6.0000000   6.0000000   6.0000000   6.0000000

  Atom        11          12          13          14          15          16          17          18          19          20
 IAtWgt=          12          12          16          16          16          16          16          16          16          14
 AtmWgt=  12.0000000  12.0000000  15.9949146  15.9949146  15.9949146  15.9949146  15.9949146  15.9949146  15.9949146  14.0030740
 NucSpn=           0           0           0           0           0           0           0           0           0           2
 AtZEff=  -0.0000000  -0.0000000  -0.0000000  -0.0000000  -0.0000000  -0.0000000  -0.0000000  -0.0000000  -0.0000000  -0.0000000
 NQMom=    0.0000000   0.0000000   0.0000000   0.0000000   0.0000000   0.0000000   0.0000000   0.0000000   0.0000000   2.0440000
 NMagM=    0.0000000   0.0000000   0.0000000   0.0000000   0.0000000   0.0000000   0.0000000   0.0000000   0.0000000   0.4037610
 AtZNuc=   6.0000000   6.0000000   8.0000000   8.0000000   8.0000000   8.0000000   8.0000000   8.0000000   8.0000000   7.0000000

  Atom        21          22          23          24          25          26          27          28          29          30
 IAtWgt=          14           1           1           1           1           1           1           1           1           1
 AtmWgt=  14.0030740   1.0078250   1.0078250   1.0078250   1.0078250   1.0078250   1.0078250   1.0078250   1.0078250   1.0078250
 NucSpn=           2           1           1           1           1           1           1           1           1           1
 AtZEff=  -0.0000000  -0.0000000  -0.0000000  -0.0000000  -0.0000000  -0.0000000  -0.0000000  -0.0000000  -0.0000000  -0.0000000
 NQMom=    2.0440000   0.0000000   0.0000000   0.0000000   0.0000000   0.0000000   0.0000000   0.0000000   0.0000000   0.0000000
 NMagM=    0.4037610   2.7928460   2.7928460   2.7928460   2.7928460   2.7928460   2.7928460   2.7928460   2.7928460   2.7928460
 AtZNuc=   7.0000000   1.0000000   1.0000000   1.0000000   1.0000000   1.0000000   1.0000000   1.0000000   1.0000000   1.0000000

  Atom        31          32          33          34          35          36          37          38          39
 IAtWgt=           1           1           1           1           1          66           1           1           1
 AtmWgt=   1.0078250   1.0078250   1.0078250   1.0078250   1.0078250  65.9260352   1.0078250   1.0078250   1.0078250
 NucSpn=           1           1           1           1           1           0           1           1           1
 AtZEff=  -0.0000000  -0.0000000  -0.0000000  -0.0000000  -0.0000000  -0.0000000  -0.0000000  -0.0000000  -0.0000000
 NQMom=    0.0000000   0.0000000   0.0000000   0.0000000   0.0000000   0.0000000   0.0000000   0.0000000   0.0000000
 NMagM=    2.7928460   2.7928460   2.7928460   2.7928460   2.7928460   0.0000000   2.7928460   2.7928460   2.7928460
 AtZNuc=   1.0000000   1.0000000   1.0000000   1.0000000   1.0000000  30.0000000   1.0000000   1.0000000   1.0000000
 Leave Link  101 at Fri Oct  2 15:36:14 2020, MaxMem= 11811160064 cpu:               3.7 elap:               0.2
 (Enter /apps/gaussian/g16-a03/l103.exe)

 GradGradGradGradGradGradGradGradGradGradGradGradGradGradGradGradGradGrad
 Berny optimization.
 Initialization pass.
 Trust Radius=3.00D-01 FncErr=1.00D-07 GrdErr=1.00D-07 EigMax=2.50D+02 EigMin=1.00D-04
 Number of steps in this run=      2 maximum allowed number of steps=      2.
 GradGradGradGradGradGradGradGradGradGradGradGradGradGradGradGradGradGrad

 Leave Link  103 at Fri Oct  2 15:36:14 2020, MaxMem= 11811160064 cpu:               0.5 elap:               0.0
 (Enter /apps/gaussian/g16-a03/l202.exe)
                          Input orientation:                          
 ---------------------------------------------------------------------
 Center     Atomic      Atomic             Coordinates (Angstroms)
 Number     Number       Type             X           Y           Z
 ---------------------------------------------------------------------
      1          6           0        2.916051   -1.127272   -0.863979
      2          6           0        2.774514   -0.682154    0.604342
      3          6           0        2.245848   -1.723596    1.623921
      4          6           0        1.392340   -0.576837    2.204234
      5          6           0        1.829370    1.621612    1.018914
      6          6           0        0.597691    2.407949    1.475419
      7          6           0       -0.652231    2.290655    0.585416
      8          6           0       -0.276318    2.634094   -0.888056
      9          6           0       -2.661236    0.925648    0.235590
     10          6           0       -3.455328   -0.222828    0.863811
     11          6           0       -2.806244   -1.610131    0.736724
     12          6           0       -2.278149   -1.793990   -0.707523
     13          8           0        1.875203   -0.950741   -1.599771
     14          8           0        3.988957   -1.645186   -1.174863
     15          8           0       -0.064401    1.622089   -1.661915
     16          8           0       -0.162971    3.826380   -1.168313
     17          8           0       -0.977839   -1.818080   -0.782890
     18          8           0       -3.086303   -1.866462   -1.625740
     19          8           0       -1.751224   -1.764061    1.685245
     20          7           0        1.597244    0.178692    0.936981
     21          7           0       -1.253951    0.954777    0.679609
     22          1           0        3.713021   -0.226087    0.945250
     23          1           0        1.640772   -2.494194    1.137569
     24          1           0        2.978796   -2.191382    2.282991
     25          1           0        0.348252   -0.777334    2.458662
     26          1           0        1.888316   -0.078002    3.050963
     27          1           0        2.663218    1.826201    1.714296
     28          1           0        2.141705    1.958732    0.024623
     29          1           0        0.874020    3.467069    1.500403
     30          1           0       -1.365983    3.060982    0.914904
     31          1           0       -2.674303    0.840303   -0.855616
     32          1           0       -3.157748    1.878042    0.486214
     33          1           0       -3.620827   -0.025209    1.932003
     34          1           0       -4.435776   -0.254447    0.376340
     35          1           0       -3.573256   -2.374003    0.923727
     36         30           0        0.190329   -0.179048   -0.805010
     37          1           0        0.338292    2.119280    2.505471
     38          1           0       -1.206346    0.596118    1.630569
     39          1           0       -0.994269   -1.979329    1.098914
 ---------------------------------------------------------------------
                    Distance matrix (angstroms):
                    1          2          3          4          5
     1  C    0.000000
     2  C    1.540821   0.000000
     3  C    2.644697   1.550365   0.000000
     4  C    3.469669   2.116873   1.542821   0.000000
     5  C    3.504643   2.524382   3.424895   2.535578   0.000000
     6  C    4.831704   3.878926   4.450633   3.173576   1.530933
     7  C    5.149331   4.536577   5.058811   3.875997   2.606508
     8  C    4.933525   4.746823   5.626794   4.759911   3.015887
     9  C    6.043977   5.680527   5.746776   4.750210   4.611237
    10  C    6.663163   6.252139   5.944197   5.042018   5.599469
    11  C    5.961549   5.658933   5.130656   4.566113   5.657978
    12  C    5.239151   5.337281   5.089905   4.840690   5.614146
    13  O    1.286825   2.395624   3.335697   3.852715   3.671050
    14  O    1.231264   2.359634   3.298146   4.393414   4.488702
    15  O    4.132648   4.301732   5.227578   4.680222   3.282257
    16  O    5.840519   5.665510   6.663424   5.760329   3.689768
    17  O    3.955524   4.158713   4.024155   4.010155   4.791493
    18  O    6.095485   6.381616   6.246002   6.032419   6.582150
    19  O    5.356071   4.777152   3.997747   3.400124   4.972669
    20  N    2.586165   1.495884   2.123976   1.489544   1.463767
    21  N    4.909838   4.348993   4.507106   3.416603   3.172801
    22  H    2.172695   1.097730   2.203571   2.663386   2.639613
    23  H    2.738797   2.202996   1.093836   2.208110   4.121833
    24  H    3.322602   2.266575   1.091059   2.264906   4.178276
    25  H    4.213786   3.055210   2.278832   1.093185   3.165680
    26  H    4.181385   2.671386   2.207319   1.100808   2.649790
    27  H    3.928668   2.745219   3.575391   2.762202   1.104860
    28  H    3.303429   2.776833   4.015985   3.426567   1.095362
    29  H    5.555912   4.650898   5.370305   4.137295   2.133128
    30  H    6.248337   5.590280   6.036573   4.743885   3.506121
    31  H    5.926506   5.842855   6.076970   5.282855   4.940382
    32  H    6.909846   6.462220   6.592801   5.448057   5.022039
    33  H    7.194639   6.564651   6.115334   5.050767   5.766316
    34  H    7.506635   7.226562   6.954060   6.116541   6.571496
    35  H    6.845534   6.577123   5.897056   5.433843   6.720295
    36  Zn   2.886549   2.986202   3.537017   3.264754   3.042290
    37  H    5.342110   4.171031   4.379908   2.910465   2.163525
    38  H    5.117324   4.305156   4.159178   2.908279   3.262105
    39  H    4.457528   4.016340   3.292323   2.980708   4.576692
                    6          7          8          9         10
     6  C    0.000000
     7  C    1.538885   0.000000
     8  C    2.530029   1.558968   0.000000
     9  C    3.788799   2.453920   3.141529   0.000000
    10  C    4.870525   3.775242   4.619215   1.531091   0.000000
    11  C    5.317651   4.458565   5.201335   2.588887   1.536903
    12  C    5.540035   4.582535   4.862905   2.903902   2.514635
    13  O    4.729654   4.655063   4.241064   5.241056   5.917234
    14  O    5.912071   6.334829   6.048724   7.267987   7.848355
    15  O    3.301334   2.417234   1.291480   3.290761   4.613176
    16  O    3.095137   2.381888   1.230015   4.077563   5.600467
    17  O    5.043964   4.342808   4.508331   3.376266   3.375560
    18  O    6.438912   5.300523   5.356790   3.382471   3.005924
    19  O    4.792400   4.342595   5.304808   3.188127   2.440107
    20  N    2.501721   3.105499   3.587477   4.380016   5.069029
    21  N    2.484673   1.468165   2.496687   1.475958   2.503347
    22  H    4.113940   5.051623   5.239892   6.516231   7.168812
    23  H    5.023263   5.334559   5.837613   5.569215   5.586079
    24  H    5.241725   6.012884   6.628463   6.761486   6.876571
    25  H    3.342905   3.731296   4.819590   4.110865   4.161520
    26  H    3.213721   4.259558   5.249474   5.443534   5.775737
    27  H    2.159142   3.533028   4.008216   5.598873   6.508337
    28  H    2.165776   2.868927   2.671317   4.917318   6.065494
    29  H    1.094859   2.133212   2.778824   4.533940   5.723971
    30  H    2.143979   1.100640   2.149481   2.588204   3.892478
    31  H    4.312445   2.875564   2.994841   1.094616   2.167182
    32  H    3.919522   2.541202   3.280682   1.102901   2.155177
    33  H    4.891280   3.998635   5.119606   2.168585   1.098853
    34  H    5.799320   4.564698   5.219527   2.135750   1.095402
    35  H    6.369319   5.514152   6.263657   3.491849   2.155238
    36  Zn   3.472586   2.956793   2.852792   3.230267   4.009700
    37  H    1.100738   2.167283   3.486948   3.946427   4.751007
    38  H    2.561514   2.066602   3.370722   2.042367   2.513267
    39  H    4.682339   4.314329   5.074167   3.458757   3.032718
                   11         12         13         14         15
    11  C    0.000000
    12  C    1.548721   0.000000
    13  O    5.273514   4.330994   0.000000
    14  O    7.059047   6.286268   2.265117   0.000000
    15  O    4.870156   4.181045   3.222636   5.228959   0.000000
    16  O    6.338116   6.022862   5.211640   6.868521   2.261030
    17  O    2.386532   1.302715   3.091831   4.985238   3.666308
    18  O    2.392776   1.225352   5.045370   7.093064   4.615538
    19  O    1.427044   2.450283   4.960221   6.414361   5.051224
    20  N    4.757173   4.649144   2.790697   3.675147   3.405689
    21  N    2.998604   3.244817   4.314879   6.138970   2.709810
    22  H    6.667824   6.409688   3.221774   2.566099   4.947927
    23  H    4.551724   4.387778   3.151228   3.403253   5.261987
    24  H    6.016268   6.061070   4.222908   3.643557   6.274224
    25  H    3.689101   4.237487   4.339646   5.216359   4.786091
    26  H    5.453624   5.867731   4.731931   4.972561   5.377233
    27  H    6.532920   6.586964   4.394931   4.706947   4.345155
    28  H    6.142155   5.844148   3.342860   4.223663   2.797256
    29  H    6.317081   6.518424   5.489125   6.557060   3.779529
    30  H    4.891359   5.199526   5.737839   7.429033   3.225605
    31  H    2.925334   2.668027   4.945666   7.118891   2.841284
    32  H    3.514778   3.960116   6.138725   8.139269   3.774754
    33  H    2.145743   3.449416   6.598211   8.377694   5.317707
    34  H    2.150147   2.863618   6.649684   8.678509   5.175402
    35  H    1.098534   2.162104   6.170853   7.881771   5.913236
    36  Zn   3.661201   2.951428   2.016421   4.088512   2.010788
    37  H    5.188938   5.699366   5.351648   6.406514   4.216215
    38  H    2.868130   3.511133   4.724808   6.315462   3.632782
    39  H    1.884341   2.223941   4.071212   5.487646   4.632175
                   16         17         18         19         20
    16  O    0.000000
    17  O    5.715985   0.000000
    18  O    6.415883   2.271202   0.000000
    19  O    6.474440   2.587032   3.571490   0.000000
    20  N    4.564674   3.684577   5.717150   3.942896   0.000000
    21  N    3.584851   3.147043   4.078178   2.941201   2.966119
    22  H    5.992742   5.246435   7.451955   5.724590   2.154165
    23  H    6.965647   3.316989   5.511367   3.512646   2.680755
    24  H    7.615488   5.019357   7.222823   4.786752   3.055762
    25  H    5.883067   3.653673   5.446532   2.445323   2.188488
    26  H    6.103627   5.093245   7.058114   4.237243   2.149310
    27  H    4.505274   5.724860   7.605826   5.690178   2.110641
    28  H    3.197301   4.964669   6.684899   5.636643   2.073012
    29  H    2.885568   6.047777   7.341899   5.855834   3.413784
    30  H    2.524453   5.180580   5.804660   4.901314   4.133860
    31  H    3.914233   3.154406   2.844189   3.753766   4.679449
    32  H    3.937279   4.474812   4.299624   4.084226   5.069608
    33  H    6.033528   4.191708   4.041468   2.565134   5.316005
    34  H    6.107042   3.968134   2.903101   3.346489   6.074476
    35  H    7.379121   3.155595   2.644712   2.066819   5.766324
    36  Zn   4.037358   2.012842   3.775881   3.533166   2.267580
    37  H    4.081929   5.296067   6.684377   4.485441   2.794817
    38  H    4.399655   3.421308   4.494673   2.422876   2.918120
    39  H    6.287896   1.888771   3.437017   0.981379   3.376273
                   21         22         23         24         25
    21  N    0.000000
    22  H    5.112320   0.000000
    23  H    4.525986   3.078232   0.000000
    24  H    5.512286   2.488176   1.787175   0.000000
    25  H    2.955045   3.730410   2.522598   2.991681   0.000000
    26  H    4.069864   2.790252   3.091980   2.499060   1.792117
    27  H    4.144173   2.430104   4.477033   4.069887   3.562519
    28  H    3.601029   2.844296   4.617156   4.798374   4.077631
    29  H    3.393166   4.691218   6.021313   6.087741   4.382881
    30  H    2.122266   6.049961   6.320612   6.952416   4.478221
    31  H    2.094617   6.721474   5.806163   7.141393   4.768336
    32  H    2.124679   7.200385   6.524301   7.579300   4.820125
    33  H    2.851485   7.402659   5.866126   6.954892   4.073899
    34  H    3.417339   8.168681   6.520765   7.897019   5.243701
    35  H    4.064424   7.596304   5.219795   6.694052   4.503732
    36  Zn   2.361270   3.933825   3.352208   4.621773   3.321813
    37  H    2.687950   4.395888   4.985153   5.059997   2.897009
    38  H    1.017461   5.034467   4.230740   5.070624   2.233581
    39  H    2.975270   5.025540   2.685148   4.151175   2.257448
                   26         27         28         29         30
    26  H    0.000000
    27  H    2.452171   0.000000
    28  H    3.656669   1.773284   0.000000
    29  H    4.000070   2.437094   2.461713   0.000000
    30  H    5.000643   4.289309   3.783045   2.350602   0.000000
    31  H    6.076359   6.005462   5.021916   5.004130   3.126957
    32  H    5.988890   5.949329   5.320130   4.450701   2.189416
    33  H    5.621878   6.554719   6.385992   5.708409   3.955172
    34  H    6.868688   7.517642   6.948750   6.580815   4.550357
    35  H    6.294881   7.560444   7.227846   7.364030   5.866106
    36  Zn   4.214487   4.059939   3.011024   4.367669   3.984722
    37  H    2.743754   2.473284   3.071267   1.764568   2.514211
    38  H    3.471151   4.061236   3.955405   3.547848   2.571617
    39  H    3.966716   5.313941   5.147500   5.771910   5.057348
                   31         32         33         34         35
    31  H    0.000000
    32  H    1.763839   0.000000
    33  H    3.068524   2.434566   0.000000
    34  H    2.412256   2.488561   1.771096   0.000000
    35  H    3.782320   4.294642   2.556505   2.352890   0.000000
    36  Zn   3.041012   4.136242   4.694658   4.775157   4.687316
    37  H    4.691313   4.044489   4.538978   5.741037   6.163742
    38  H    2.897523   2.600163   2.511300   3.567320   3.863096
    39  H    3.820082   4.464902   3.378081   3.916797   2.614887
                   36         37         38         39
    36  Zn   0.000000
    37  H    4.032802   0.000000
    38  H    2.912667   2.339099   0.000000
    39  H    2.875624   4.533510   2.638288   0.000000
 Stoichiometry    C12H17N2O7Zn(1-)
 Framework group  C1[X(C12H17N2O7Zn)]
 Deg. of freedom   111
 Full point group                 C1      NOp   1
 Largest Abelian subgroup         C1      NOp   1
 Largest concise Abelian subgroup C1      NOp   1
                         Standard orientation:                         
 ---------------------------------------------------------------------
 Center     Atomic      Atomic             Coordinates (Angstroms)
 Number     Number       Type             X           Y           Z
 ---------------------------------------------------------------------
      1          6           0        2.916051   -1.127271   -0.863979
      2          6           0        2.774514   -0.682153    0.604342
      3          6           0        2.245848   -1.723596    1.623921
      4          6           0        1.392340   -0.576837    2.204234
      5          6           0        1.829370    1.621612    1.018914
      6          6           0        0.597690    2.407949    1.475419
      7          6           0       -0.652232    2.290655    0.585416
      8          6           0       -0.276319    2.634094   -0.888056
      9          6           0       -2.661236    0.925648    0.235590
     10          6           0       -3.455328   -0.222829    0.863811
     11          6           0       -2.806244   -1.610132    0.736724
     12          6           0       -2.278149   -1.793990   -0.707523
     13          8           0        1.875203   -0.950741   -1.599771
     14          8           0        3.988957   -1.645185   -1.174863
     15          8           0       -0.064401    1.622089   -1.661915
     16          8           0       -0.162972    3.826380   -1.168313
     17          8           0       -0.977839   -1.818080   -0.782890
     18          8           0       -3.086303   -1.866463   -1.625740
     19          8           0       -1.751224   -1.764061    1.685245
     20          7           0        1.597244    0.178692    0.936981
     21          7           0       -1.253951    0.954777    0.679609
     22          1           0        3.713021   -0.226086    0.945250
     23          1           0        1.640772   -2.494194    1.137569
     24          1           0        2.978796   -2.191381    2.282991
     25          1           0        0.348252   -0.777334    2.458662
     26          1           0        1.888316   -0.078002    3.050963
     27          1           0        2.663217    1.826202    1.714296
     28          1           0        2.141704    1.958732    0.024623
     29          1           0        0.874019    3.467069    1.500403
     30          1           0       -1.365984    3.060982    0.914904
     31          1           0       -2.674303    0.840303   -0.855616
     32          1           0       -3.157749    1.878041    0.486214
     33          1           0       -3.620827   -0.025210    1.932003
     34          1           0       -4.435776   -0.254448    0.376340
     35          1           0       -3.573256   -2.374004    0.923727
     36         30           0        0.190329   -0.179048   -0.805010
     37          1           0        0.338291    2.119280    2.505471
     38          1           0       -1.206346    0.596118    1.630569
     39          1           0       -0.994269   -1.979329    1.098914
 ---------------------------------------------------------------------
 Rotational constants (GHZ):           0.3452138           0.2632525           0.2135352
 Leave Link  202 at Fri Oct  2 15:36:14 2020, MaxMem= 11811160064 cpu:               0.2 elap:               0.0
 (Enter /apps/gaussian/g16-a03/l301.exe)
 General basis read from cards:  (5D, 7F)
 Centers:      22     23     24     25     26     27     28     29     30     31
 Centers:      32     33     34     35     37     38     39     13     14     15
 Centers:      16     17     18     19     20     21      1      2      3      4
 Centers:       5      6      7      8      9     10     11     12
 6-31g(d)
 ****
 Centers:      36
 LanL2DZ
 ****
 ======================================================================================================
                                       Pseudopotential Parameters
 ======================================================================================================
  Center     Atomic      Valence      Angular      Power
  Number     Number     Electrons     Momentum     of R      Exponent        Coefficient   SO-Coeffient
 ======================================================================================================
    1          6
                                   No pseudopotential on this center.
    2          6
                                   No pseudopotential on this center.
    3          6
                                   No pseudopotential on this center.
    4          6
                                   No pseudopotential on this center.
    5          6
                                   No pseudopotential on this center.
    6          6
                                   No pseudopotential on this center.
    7          6
                                   No pseudopotential on this center.
    8          6
                                   No pseudopotential on this center.
    9          6
                                   No pseudopotential on this center.
   10          6
                                   No pseudopotential on this center.
   11          6
                                   No pseudopotential on this center.
   12          6
                                   No pseudopotential on this center.
   13          8
                                   No pseudopotential on this center.
   14          8
                                   No pseudopotential on this center.
   15          8
                                   No pseudopotential on this center.
   16          8
                                   No pseudopotential on this center.
   17          8
                                   No pseudopotential on this center.
   18          8
                                   No pseudopotential on this center.
   19          8
                                   No pseudopotential on this center.
   20          7
                                   No pseudopotential on this center.
   21          7
                                   No pseudopotential on this center.
   22          1
                                   No pseudopotential on this center.
   23          1
                                   No pseudopotential on this center.
   24          1
                                   No pseudopotential on this center.
   25          1
                                   No pseudopotential on this center.
   26          1
                                   No pseudopotential on this center.
   27          1
                                   No pseudopotential on this center.
   28          1
                                   No pseudopotential on this center.
   29          1
                                   No pseudopotential on this center.
   30          1
                                   No pseudopotential on this center.
   31          1
                                   No pseudopotential on this center.
   32          1
                                   No pseudopotential on this center.
   33          1
                                   No pseudopotential on this center.
   34          1
                                   No pseudopotential on this center.
   35          1
                                   No pseudopotential on this center.
   36         30           12
                                      F and up 
                                                     1      386.7379660      -18.00000000    0.00000000
                                                     2       72.8587359     -124.35274030    0.00000000
                                                     2       15.9066170      -30.66018220    0.00000000
                                                     2        4.3502340      -10.63589890    0.00000000
                                                     2        1.2842199       -0.76836230    0.00000000
                                      S - F
                                                     0       19.0867858        3.00000000    0.00000000
                                                     1        5.0231080       22.52342250    0.00000000
                                                     2        1.2701744       48.44659420    0.00000000
                                                     2        1.0671287      -44.55601190    0.00000000
                                                     2        0.9264190       12.99839580    0.00000000
                                      P - F
                                                     0       43.4927750        5.00000000    0.00000000
                                                     1       20.8692669       20.74355890    0.00000000
                                                     2       21.7118378       90.30271580    0.00000000
                                                     2        6.3616915       74.66103160    0.00000000
                                                     2        1.2291195        9.88944240    0.00000000
                                      D - F
                                                     2       13.5851800       -4.84903590    0.00000000
                                                     2        9.8373050        3.69133790    0.00000000
                                                     2        0.8373113       -0.50373190    0.00000000
   37          1
                                   No pseudopotential on this center.
   38          1
                                   No pseudopotential on this center.
   39          1
                                   No pseudopotential on this center.
 ======================================================================================================
 Ernie: Thresh=  0.10000D-02 Tol=  0.10000D-05 Strict=F.
 AO basis set (Overlap normalization):
 Atom C1       Shell     1 S   6     bf    1 -     1          5.510537873384         -2.130234242273         -1.632683837354
      0.3047524880D+04  0.1834737132D-02
      0.4573695180D+03  0.1403732281D-01
      0.1039486850D+03  0.6884262226D-01
      0.2921015530D+02  0.2321844432D+00
      0.9286662960D+01  0.4679413484D+00
      0.3163926960D+01  0.3623119853D+00
 Atom C1       Shell     2 SP   3    bf    2 -     5          5.510537873384         -2.130234242273         -1.632683837354
      0.7868272350D+01 -0.1193324198D+00  0.6899906659D-01
      0.1881288540D+01 -0.1608541517D+00  0.3164239610D+00
      0.5442492580D+00  0.1143456438D+01  0.7443082909D+00
 Atom C1       Shell     3 SP   1    bf    6 -     9          5.510537873384         -2.130234242273         -1.632683837354
      0.1687144782D+00  0.1000000000D+01  0.1000000000D+01
 Atom C1       Shell     4 D   1     bf   10 -    14          5.510537873384         -2.130234242273         -1.632683837354
      0.8000000000D+00  0.1000000000D+01
 Atom C2       Shell     5 S   6     bf   15 -    15          5.243071545757         -1.289083180396          1.142040715594
      0.3047524880D+04  0.1834737132D-02
      0.4573695180D+03  0.1403732281D-01
      0.1039486850D+03  0.6884262226D-01
      0.2921015530D+02  0.2321844432D+00
      0.9286662960D+01  0.4679413484D+00
      0.3163926960D+01  0.3623119853D+00
 Atom C2       Shell     6 SP   3    bf   16 -    19          5.243071545757         -1.289083180396          1.142040715594
      0.7868272350D+01 -0.1193324198D+00  0.6899906659D-01
      0.1881288540D+01 -0.1608541517D+00  0.3164239610D+00
      0.5442492580D+00  0.1143456438D+01  0.7443082909D+00
 Atom C2       Shell     7 SP   1    bf   20 -    23          5.243071545757         -1.289083180396          1.142040715594
      0.1687144782D+00  0.1000000000D+01  0.1000000000D+01
 Atom C2       Shell     8 D   1     bf   24 -    28          5.243071545757         -1.289083180396          1.142040715594
      0.8000000000D+00  0.1000000000D+01
 Atom C3       Shell     9 S   6     bf   29 -    29          4.244037971394         -3.257123526395          3.068765787952
      0.3047524880D+04  0.1834737132D-02
      0.4573695180D+03  0.1403732281D-01
      0.1039486850D+03  0.6884262226D-01
      0.2921015530D+02  0.2321844432D+00
      0.9286662960D+01  0.4679413484D+00
      0.3163926960D+01  0.3623119853D+00
 Atom C3       Shell    10 SP   3    bf   30 -    33          4.244037971394         -3.257123526395          3.068765787952
      0.7868272350D+01 -0.1193324198D+00  0.6899906659D-01
      0.1881288540D+01 -0.1608541517D+00  0.3164239610D+00
      0.5442492580D+00  0.1143456438D+01  0.7443082909D+00
 Atom C3       Shell    11 SP   1    bf   34 -    37          4.244037971394         -3.257123526395          3.068765787952
      0.1687144782D+00  0.1000000000D+01  0.1000000000D+01
 Atom C3       Shell    12 D   1     bf   38 -    42          4.244037971394         -3.257123526395          3.068765787952
      0.8000000000D+00  0.1000000000D+01
 Atom C4       Shell    13 S   6     bf   43 -    43          2.631141191137         -1.090063394489          4.165398424476
      0.3047524880D+04  0.1834737132D-02
      0.4573695180D+03  0.1403732281D-01
      0.1039486850D+03  0.6884262226D-01
      0.2921015530D+02  0.2321844432D+00
      0.9286662960D+01  0.4679413484D+00
      0.3163926960D+01  0.3623119853D+00
 Atom C4       Shell    14 SP   3    bf   44 -    47          2.631141191137         -1.090063394489          4.165398424476
      0.7868272350D+01 -0.1193324198D+00  0.6899906659D-01
      0.1881288540D+01 -0.1608541517D+00  0.3164239610D+00
      0.5442492580D+00  0.1143456438D+01  0.7443082909D+00
 Atom C4       Shell    15 SP   1    bf   48 -    51          2.631141191137         -1.090063394489          4.165398424476
      0.1687144782D+00  0.1000000000D+01  0.1000000000D+01
 Atom C4       Shell    16 D   1     bf   52 -    56          2.631141191137         -1.090063394489          4.165398424476
      0.8000000000D+00  0.1000000000D+01
 Atom C5       Shell    17 S   6     bf   57 -    57          3.457007403506          3.064403272542          1.925468254507
      0.3047524880D+04  0.1834737132D-02
      0.4573695180D+03  0.1403732281D-01
      0.1039486850D+03  0.6884262226D-01
      0.2921015530D+02  0.2321844432D+00
      0.9286662960D+01  0.4679413484D+00
      0.3163926960D+01  0.3623119853D+00
 Atom C5       Shell    18 SP   3    bf   58 -    61          3.457007403506          3.064403272542          1.925468254507
      0.7868272350D+01 -0.1193324198D+00  0.6899906659D-01
      0.1881288540D+01 -0.1608541517D+00  0.3164239610D+00
      0.5442492580D+00  0.1143456438D+01  0.7443082909D+00
 Atom C5       Shell    19 SP   1    bf   62 -    65          3.457007403506          3.064403272542          1.925468254507
      0.1687144782D+00  0.1000000000D+01  0.1000000000D+01
 Atom C5       Shell    20 D   1     bf   66 -    70          3.457007403506          3.064403272542          1.925468254507
      0.8000000000D+00  0.1000000000D+01
 Atom C6       Shell    21 S   6     bf   71 -    71          1.129471135470          4.550364398280          2.788137679001
      0.3047524880D+04  0.1834737132D-02
      0.4573695180D+03  0.1403732281D-01
      0.1039486850D+03  0.6884262226D-01
      0.2921015530D+02  0.2321844432D+00
      0.9286662960D+01  0.4679413484D+00
      0.3163926960D+01  0.3623119853D+00
 Atom C6       Shell    22 SP   3    bf   72 -    75          1.129471135470          4.550364398280          2.788137679001
      0.7868272350D+01 -0.1193324198D+00  0.6899906659D-01
      0.1881288540D+01 -0.1608541517D+00  0.3164239610D+00
      0.5442492580D+00  0.1143456438D+01  0.7443082909D+00
 Atom C6       Shell    23 SP   1    bf   76 -    79          1.129471135470          4.550364398280          2.788137679001
      0.1687144782D+00  0.1000000000D+01  0.1000000000D+01
 Atom C6       Shell    24 D   1     bf   80 -    84          1.129471135470          4.550364398280          2.788137679001
      0.8000000000D+00  0.1000000000D+01
 Atom C7       Shell    25 S   6     bf   85 -    85         -1.232539079138          4.328710409747          1.106275758960
      0.3047524880D+04  0.1834737132D-02
      0.4573695180D+03  0.1403732281D-01
      0.1039486850D+03  0.6884262226D-01
      0.2921015530D+02  0.2321844432D+00
      0.9286662960D+01  0.4679413484D+00
      0.3163926960D+01  0.3623119853D+00
 Atom C7       Shell    26 SP   3    bf   86 -    89         -1.232539079138          4.328710409747          1.106275758960
      0.7868272350D+01 -0.1193324198D+00  0.6899906659D-01
      0.1881288540D+01 -0.1608541517D+00  0.3164239610D+00
      0.5442492580D+00  0.1143456438D+01  0.7443082909D+00
 Atom C7       Shell    27 SP   1    bf   90 -    93         -1.232539079138          4.328710409747          1.106275758960
      0.1687144782D+00  0.1000000000D+01  0.1000000000D+01
 Atom C7       Shell    28 D   1     bf   94 -    98         -1.232539079138          4.328710409747          1.106275758960
      0.8000000000D+00  0.1000000000D+01
 Atom C8       Shell    29 S   6     bf   99 -    99         -0.522166586801          4.977716196324         -1.678182773255
      0.3047524880D+04  0.1834737132D-02
      0.4573695180D+03  0.1403732281D-01
      0.1039486850D+03  0.6884262226D-01
      0.2921015530D+02  0.2321844432D+00
      0.9286662960D+01  0.4679413484D+00
      0.3163926960D+01  0.3623119853D+00
 Atom C8       Shell    30 SP   3    bf  100 -   103         -0.522166586801          4.977716196324         -1.678182773255
      0.7868272350D+01 -0.1193324198D+00  0.6899906659D-01
      0.1881288540D+01 -0.1608541517D+00  0.3164239610D+00
      0.5442492580D+00  0.1143456438D+01  0.7443082909D+00
 Atom C8       Shell    31 SP   1    bf  104 -   107         -0.522166586801          4.977716196324         -1.678182773255
      0.1687144782D+00  0.1000000000D+01  0.1000000000D+01
 Atom C8       Shell    32 D   1     bf  108 -   112         -0.522166586801          4.977716196324         -1.678182773255
      0.8000000000D+00  0.1000000000D+01
 Atom C9       Shell    33 S   6     bf  113 -   113         -5.029007817880          1.749220294364          0.445200427708
      0.3047524880D+04  0.1834737132D-02
      0.4573695180D+03  0.1403732281D-01
      0.1039486850D+03  0.6884262226D-01
      0.2921015530D+02  0.2321844432D+00
      0.9286662960D+01  0.4679413484D+00
      0.3163926960D+01  0.3623119853D+00
 Atom C9       Shell    34 SP   3    bf  114 -   117         -5.029007817880          1.749220294364          0.445200427708
      0.7868272350D+01 -0.1193324198D+00  0.6899906659D-01
      0.1881288540D+01 -0.1608541517D+00  0.3164239610D+00
      0.5442492580D+00  0.1143456438D+01  0.7443082909D+00
 Atom C9       Shell    35 SP   1    bf  118 -   121         -5.029007817880          1.749220294364          0.445200427708
      0.1687144782D+00  0.1000000000D+01  0.1000000000D+01
 Atom C9       Shell    36 D   1     bf  122 -   126         -5.029007817880          1.749220294364          0.445200427708
      0.8000000000D+00  0.1000000000D+01
 Atom C10      Shell    37 S   6     bf  127 -   127         -6.529623799834         -0.421085093738          1.632366063408
      0.3047524880D+04  0.1834737132D-02
      0.4573695180D+03  0.1403732281D-01
      0.1039486850D+03  0.6884262226D-01
      0.2921015530D+02  0.2321844432D+00
      0.9286662960D+01  0.4679413484D+00
      0.3163926960D+01  0.3623119853D+00
 Atom C10      Shell    38 SP   3    bf  128 -   131         -6.529623799834         -0.421085093738          1.632366063408
      0.7868272350D+01 -0.1193324198D+00  0.6899906659D-01
      0.1881288540D+01 -0.1608541517D+00  0.3164239610D+00
      0.5442492580D+00  0.1143456438D+01  0.7443082909D+00
 Atom C10      Shell    39 SP   1    bf  132 -   135         -6.529623799834         -0.421085093738          1.632366063408
      0.1687144782D+00  0.1000000000D+01  0.1000000000D+01
 Atom C10      Shell    40 D   1     bf  136 -   140         -6.529623799834         -0.421085093738          1.632366063408
      0.8000000000D+00  0.1000000000D+01
 Atom C11      Shell    41 S   6     bf  141 -   141         -5.303032305787         -3.042707580553          1.392206439416
      0.3047524880D+04  0.1834737132D-02
      0.4573695180D+03  0.1403732281D-01
      0.1039486850D+03  0.6884262226D-01
      0.2921015530D+02  0.2321844432D+00
      0.9286662960D+01  0.4679413484D+00
      0.3163926960D+01  0.3623119853D+00
 Atom C11      Shell    42 SP   3    bf  142 -   145         -5.303032305787         -3.042707580553          1.392206439416
      0.7868272350D+01 -0.1193324198D+00  0.6899906659D-01
      0.1881288540D+01 -0.1608541517D+00  0.3164239610D+00
      0.5442492580D+00  0.1143456438D+01  0.7443082909D+00
 Atom C11      Shell    43 SP   1    bf  146 -   149         -5.303032305787         -3.042707580553          1.392206439416
      0.1687144782D+00  0.1000000000D+01  0.1000000000D+01
 Atom C11      Shell    44 D   1     bf  150 -   154         -5.303032305787         -3.042707580553          1.392206439416
      0.8000000000D+00  0.1000000000D+01
 Atom C12      Shell    45 S   6     bf  155 -   155         -4.305077321476         -3.390150544917         -1.337024846809
      0.3047524880D+04  0.1834737132D-02
      0.4573695180D+03  0.1403732281D-01
      0.1039486850D+03  0.6884262226D-01
      0.2921015530D+02  0.2321844432D+00
      0.9286662960D+01  0.4679413484D+00
      0.3163926960D+01  0.3623119853D+00
 Atom C12      Shell    46 SP   3    bf  156 -   159         -4.305077321476         -3.390150544917         -1.337024846809
      0.7868272350D+01 -0.1193324198D+00  0.6899906659D-01
      0.1881288540D+01 -0.1608541517D+00  0.3164239610D+00
      0.5442492580D+00  0.1143456438D+01  0.7443082909D+00
 Atom C12      Shell    47 SP   1    bf  160 -   163         -4.305077321476         -3.390150544917         -1.337024846809
      0.1687144782D+00  0.1000000000D+01  0.1000000000D+01
 Atom C12      Shell    48 D   1     bf  164 -   168         -4.305077321476         -3.390150544917         -1.337024846809
      0.8000000000D+00  0.1000000000D+01
 Atom O13      Shell    49 S   6     bf  169 -   169          3.543620152178         -1.796639376570         -3.023129202000
      0.5484671660D+04  0.1831074430D-02
      0.8252349460D+03  0.1395017220D-01
      0.1880469580D+03  0.6844507810D-01
      0.5296450000D+02  0.2327143360D+00
      0.1689757040D+02  0.4701928980D+00
      0.5799635340D+01  0.3585208530D+00
 Atom O13      Shell    50 SP   3    bf  170 -   173          3.543620152178         -1.796639376570         -3.023129202000
      0.1553961625D+02 -0.1107775495D+00  0.7087426823D-01
      0.3599933586D+01 -0.1480262627D+00  0.3397528391D+00
      0.1013761750D+01  0.1130767015D+01  0.7271585773D+00
 Atom O13      Shell    51 SP   1    bf  174 -   177          3.543620152178         -1.796639376570         -3.023129202000
      0.2700058226D+00  0.1000000000D+01  0.1000000000D+01
 Atom O13      Shell    52 D   1     bf  178 -   182          3.543620152178         -1.796639376570         -3.023129202000
      0.8000000000D+00  0.1000000000D+01
 Atom O14      Shell    53 S   6     bf  183 -   183          7.538036558274         -3.108949469954         -2.220169453863
      0.5484671660D+04  0.1831074430D-02
      0.8252349460D+03  0.1395017220D-01
      0.1880469580D+03  0.6844507810D-01
      0.5296450000D+02  0.2327143360D+00
      0.1689757040D+02  0.4701928980D+00
      0.5799635340D+01  0.3585208530D+00
 Atom O14      Shell    54 SP   3    bf  184 -   187          7.538036558274         -3.108949469954         -2.220169453863
      0.1553961625D+02 -0.1107775495D+00  0.7087426823D-01
      0.3599933586D+01 -0.1480262627D+00  0.3397528391D+00
      0.1013761750D+01  0.1130767015D+01  0.7271585773D+00
 Atom O14      Shell    55 SP   1    bf  188 -   191          7.538036558274         -3.108949469954         -2.220169453863
      0.2700058226D+00  0.1000000000D+01  0.1000000000D+01
 Atom O14      Shell    56 D   1     bf  192 -   196          7.538036558274         -3.108949469954         -2.220169453863
      0.8000000000D+00  0.1000000000D+01
 Atom O15      Shell    57 S   6     bf  197 -   197         -0.121701129310          3.065303986349         -3.140564342285
      0.5484671660D+04  0.1831074430D-02
      0.8252349460D+03  0.1395017220D-01
      0.1880469580D+03  0.6844507810D-01
      0.5296450000D+02  0.2327143360D+00
      0.1689757040D+02  0.4701928980D+00
      0.5799635340D+01  0.3585208530D+00
 Atom O15      Shell    58 SP   3    bf  198 -   201         -0.121701129310          3.065303986349         -3.140564342285
      0.1553961625D+02 -0.1107775495D+00  0.7087426823D-01
      0.3599933586D+01 -0.1480262627D+00  0.3397528391D+00
      0.1013761750D+01  0.1130767015D+01  0.7271585773D+00
 Atom O15      Shell    59 SP   1    bf  202 -   205         -0.121701129310          3.065303986349         -3.140564342285
      0.2700058226D+00  0.1000000000D+01  0.1000000000D+01
 Atom O15      Shell    60 D   1     bf  206 -   210         -0.121701129310          3.065303986349         -3.140564342285
      0.8000000000D+00  0.1000000000D+01
 Atom O16      Shell    61 S   6     bf  211 -   211         -0.307972231373          7.230810239510         -2.207791747747
      0.5484671660D+04  0.1831074430D-02
      0.8252349460D+03  0.1395017220D-01
      0.1880469580D+03  0.6844507810D-01
      0.5296450000D+02  0.2327143360D+00
      0.1689757040D+02  0.4701928980D+00
      0.5799635340D+01  0.3585208530D+00
 Atom O16      Shell    62 SP   3    bf  212 -   215         -0.307972231373          7.230810239510         -2.207791747747
      0.1553961625D+02 -0.1107775495D+00  0.7087426823D-01
      0.3599933586D+01 -0.1480262627D+00  0.3397528391D+00
      0.1013761750D+01  0.1130767015D+01  0.7271585773D+00
 Atom O16      Shell    63 SP   1    bf  216 -   219         -0.307972231373          7.230810239510         -2.207791747747
      0.2700058226D+00  0.1000000000D+01  0.1000000000D+01
 Atom O16      Shell    64 D   1     bf  220 -   224         -0.307972231373          7.230810239510         -2.207791747747
      0.8000000000D+00  0.1000000000D+01
 Atom O17      Shell    65 S   6     bf  225 -   225         -1.847847535723         -3.435673576539         -1.479447835639
      0.5484671660D+04  0.1831074430D-02
      0.8252349460D+03  0.1395017220D-01
      0.1880469580D+03  0.6844507810D-01
      0.5296450000D+02  0.2327143360D+00
      0.1689757040D+02  0.4701928980D+00
      0.5799635340D+01  0.3585208530D+00
 Atom O17      Shell    66 SP   3    bf  226 -   229         -1.847847535723         -3.435673576539         -1.479447835639
      0.1553961625D+02 -0.1107775495D+00  0.7087426823D-01
      0.3599933586D+01 -0.1480262627D+00  0.3397528391D+00
      0.1013761750D+01  0.1130767015D+01  0.7271585773D+00
 Atom O17      Shell    67 SP   1    bf  230 -   233         -1.847847535723         -3.435673576539         -1.479447835639
      0.2700058226D+00  0.1000000000D+01  0.1000000000D+01
 Atom O17      Shell    68 D   1     bf  234 -   238         -1.847847535723         -3.435673576539         -1.479447835639
      0.8000000000D+00  0.1000000000D+01
 Atom O18      Shell    69 S   6     bf  239 -   239         -5.832267021713         -3.527103069172         -3.072203499729
      0.5484671660D+04  0.1831074430D-02
      0.8252349460D+03  0.1395017220D-01
      0.1880469580D+03  0.6844507810D-01
      0.5296450000D+02  0.2327143360D+00
      0.1689757040D+02  0.4701928980D+00
      0.5799635340D+01  0.3585208530D+00
 Atom O18      Shell    70 SP   3    bf  240 -   243         -5.832267021713         -3.527103069172         -3.072203499729
      0.1553961625D+02 -0.1107775495D+00  0.7087426823D-01
      0.3599933586D+01 -0.1480262627D+00  0.3397528391D+00
      0.1013761750D+01  0.1130767015D+01  0.7271585773D+00
 Atom O18      Shell    71 SP   1    bf  244 -   247         -5.832267021713         -3.527103069172         -3.072203499729
      0.2700058226D+00  0.1000000000D+01  0.1000000000D+01
 Atom O18      Shell    72 D   1     bf  248 -   252         -5.832267021713         -3.527103069172         -3.072203499729
      0.8000000000D+00  0.1000000000D+01
 Atom O19      Shell    73 S   6     bf  253 -   253         -3.309333394125         -3.333592740985          3.184651352814
      0.5484671660D+04  0.1831074430D-02
      0.8252349460D+03  0.1395017220D-01
      0.1880469580D+03  0.6844507810D-01
      0.5296450000D+02  0.2327143360D+00
      0.1689757040D+02  0.4701928980D+00
      0.5799635340D+01  0.3585208530D+00
 Atom O19      Shell    74 SP   3    bf  254 -   257         -3.309333394125         -3.333592740985          3.184651352814
      0.1553961625D+02 -0.1107775495D+00  0.7087426823D-01
      0.3599933586D+01 -0.1480262627D+00  0.3397528391D+00
      0.1013761750D+01  0.1130767015D+01  0.7271585773D+00
 Atom O19      Shell    75 SP   1    bf  258 -   261         -3.309333394125         -3.333592740985          3.184651352814
      0.2700058226D+00  0.1000000000D+01  0.1000000000D+01
 Atom O19      Shell    76 D   1     bf  262 -   266         -3.309333394125         -3.333592740985          3.184651352814
      0.8000000000D+00  0.1000000000D+01
 Atom N20      Shell    77 S   6     bf  267 -   267          3.018353359459          0.337679568854          1.770637323943
      0.4173511460D+04  0.1834772160D-02
      0.6274579110D+03  0.1399462700D-01
      0.1429020930D+03  0.6858655181D-01
      0.4023432930D+02  0.2322408730D+00
      0.1282021290D+02  0.4690699481D+00
      0.4390437010D+01  0.3604551991D+00
 Atom N20      Shell    78 SP   3    bf  268 -   271          3.018353359459          0.337679568854          1.770637323943
      0.1162636186D+02 -0.1149611817D+00  0.6757974388D-01
      0.2716279807D+01 -0.1691174786D+00  0.3239072959D+00
      0.7722183966D+00  0.1145851947D+01  0.7408951398D+00
 Atom N20      Shell    79 SP   1    bf  272 -   275          3.018353359459          0.337679568854          1.770637323943
      0.2120314975D+00  0.1000000000D+01  0.1000000000D+01
 Atom N20      Shell    80 D   1     bf  276 -   280          3.018353359459          0.337679568854          1.770637323943
      0.8000000000D+00  0.1000000000D+01
 Atom N21      Shell    81 S   6     bf  281 -   281         -2.369624599216          1.804266636090          1.284274731811
      0.4173511460D+04  0.1834772160D-02
      0.6274579110D+03  0.1399462700D-01
      0.1429020930D+03  0.6858655181D-01
      0.4023432930D+02  0.2322408730D+00
      0.1282021290D+02  0.4690699481D+00
      0.4390437010D+01  0.3604551991D+00
 Atom N21      Shell    82 SP   3    bf  282 -   285         -2.369624599216          1.804266636090          1.284274731811
      0.1162636186D+02 -0.1149611817D+00  0.6757974388D-01
      0.2716279807D+01 -0.1691174786D+00  0.3239072959D+00
      0.7722183966D+00  0.1145851947D+01  0.7408951398D+00
 Atom N21      Shell    83 SP   1    bf  286 -   289         -2.369624599216          1.804266636090          1.284274731811
      0.2120314975D+00  0.1000000000D+01  0.1000000000D+01
 Atom N21      Shell    84 D   1     bf  290 -   294         -2.369624599216          1.804266636090          1.284274731811
      0.8000000000D+00  0.1000000000D+01
 Atom H22      Shell    85 S   3     bf  295 -   295          7.016592576645         -0.427241116200          1.786263469267
      0.1873113696D+02  0.3349460434D-01
      0.2825394365D+01  0.2347269535D+00
      0.6401216923D+00  0.8137573261D+00
 Atom H22      Shell    86 S   1     bf  296 -   296          7.016592576645         -0.427241116200          1.786263469267
      0.1612777588D+00  0.1000000000D+01
 Atom H23      Shell    87 S   3     bf  297 -   297          3.100610325807         -4.713342917573          2.149693707817
      0.1873113696D+02  0.3349460434D-01
      0.2825394365D+01  0.2347269535D+00
      0.6401216923D+00  0.8137573261D+00
 Atom H23      Shell    88 S   1     bf  298 -   298          3.100610325807         -4.713342917573          2.149693707817
      0.1612777588D+00  0.1000000000D+01
 Atom H24      Shell    89 S   3     bf  299 -   299          5.629109124283         -4.141110685970          4.314227584869
      0.1873113696D+02  0.3349460434D-01
      0.2825394365D+01  0.2347269535D+00
      0.6401216923D+00  0.8137573261D+00
 Atom H24      Shell    90 S   1     bf  300 -   300          5.629109124283         -4.141110685970          4.314227584869
      0.1612777588D+00  0.1000000000D+01
 Atom H25      Shell    91 S   3     bf  301 -   301          0.658100893773         -1.468948191251          4.646197662897
      0.1873113696D+02  0.3349460434D-01
      0.2825394365D+01  0.2347269535D+00
      0.6401216923D+00  0.8137573261D+00
 Atom H25      Shell    92 S   1     bf  302 -   302          0.658100893773         -1.468948191251          4.646197662897
      0.1612777588D+00  0.1000000000D+01
 Atom H26      Shell    93 S   3     bf  303 -   303          3.568399814913         -0.147401683596          5.765484336203
      0.1873113696D+02  0.3349460434D-01
      0.2825394365D+01  0.2347269535D+00
      0.6401216923D+00  0.8137573261D+00
 Atom H26      Shell    94 S   1     bf  304 -   304          3.568399814913         -0.147401683596          5.765484336203
      0.1612777588D+00  0.1000000000D+01
 Atom H27      Shell    95 S   3     bf  305 -   305          5.032751678960          3.451020752497          3.239549786459
      0.1873113696D+02  0.3349460434D-01
      0.2825394365D+01  0.2347269535D+00
      0.6401216923D+00  0.8137573261D+00
 Atom H27      Shell    96 S   1     bf  306 -   306          5.032751678960          3.451020752497          3.239549786459
      0.1612777588D+00  0.1000000000D+01
 Atom H28      Shell    97 S   3     bf  307 -   307          4.047234890583          3.701467856722          0.046530576387
      0.1873113696D+02  0.3349460434D-01
      0.2825394365D+01  0.2347269535D+00
      0.6401216923D+00  0.8137573261D+00
 Atom H28      Shell    98 S   1     bf  308 -   308          4.047234890583          3.701467856722          0.046530576387
      0.1612777588D+00  0.1000000000D+01
 Atom H29      Shell    99 S   3     bf  309 -   309          1.651656882338          6.551811231362          2.835350596498
      0.1873113696D+02  0.3349460434D-01
      0.2825394365D+01  0.2347269535D+00
      0.6401216923D+00  0.8137573261D+00
 Atom H29      Shell   100 S   1     bf  310 -   310          1.651656882338          6.551811231362          2.835350596498
      0.1612777588D+00  0.1000000000D+01
 Atom H30      Shell   101 S   3     bf  311 -   311         -2.581335158860          5.784417207723          1.728917840291
      0.1873113696D+02  0.3349460434D-01
      0.2825394365D+01  0.2347269535D+00
      0.6401216923D+00  0.8137573261D+00
 Atom H30      Shell   102 S   1     bf  312 -   312         -2.581335158860          5.784417207723          1.728917840291
      0.1612777588D+00  0.1000000000D+01
 Atom H31      Shell   103 S   3     bf  313 -   313         -5.053700838254          1.587941613532         -1.616880057774
      0.1873113696D+02  0.3349460434D-01
      0.2825394365D+01  0.2347269535D+00
      0.6401216923D+00  0.8137573261D+00
 Atom H31      Shell   104 S   1     bf  314 -   314         -5.053700838254          1.587941613532         -1.616880057774
      0.1612777588D+00  0.1000000000D+01
 Atom H32      Shell   105 S   3     bf  315 -   315         -5.967279860211          3.548983937303          0.918811147951
      0.1873113696D+02  0.3349460434D-01
      0.2825394365D+01  0.2347269535D+00
      0.6401216923D+00  0.8137573261D+00
 Atom H32      Shell   106 S   1     bf  316 -   316         -5.967279860211          3.548983937303          0.918811147951
      0.1612777588D+00  0.1000000000D+01
 Atom H33      Shell   107 S   3     bf  317 -   317         -6.842371655263         -0.047639366639          3.650956391860
      0.1873113696D+02  0.3349460434D-01
      0.2825394365D+01  0.2347269535D+00
      0.6401216923D+00  0.8137573261D+00
 Atom H33      Shell   108 S   1     bf  318 -   318         -6.842371655263         -0.047639366639          3.650956391860
      0.1612777588D+00  0.1000000000D+01
 Atom H34      Shell   109 S   3     bf  319 -   319         -8.382401987765         -0.480836698997          0.711179379741
      0.1873113696D+02  0.3349460434D-01
      0.2825394365D+01  0.2347269535D+00
      0.6401216923D+00  0.8137573261D+00
 Atom H34      Shell   110 S   1     bf  320 -   320         -8.382401987765         -0.480836698997          0.711179379741
      0.1612777588D+00  0.1000000000D+01
 Atom H35      Shell   111 S   3     bf  321 -   321         -6.752474643516         -4.486216732439          1.745590893888
      0.1873113696D+02  0.3349460434D-01
      0.2825394365D+01  0.2347269535D+00
      0.6401216923D+00  0.8137573261D+00
 Atom H35      Shell   112 S   1     bf  322 -   322         -6.752474643516         -4.486216732439          1.745590893888
      0.1612777588D+00  0.1000000000D+01
 Atom Zn36     Shell   113 S   2     bf  323 -   323          0.359669458421         -0.338351564258         -1.521248577514
      0.7997000000D+00 -0.6486111877D+00
      0.1752000000D+00  0.1313829075D+01
 Atom Zn36     Shell   114 S   1     bf  324 -   324          0.359669458421         -0.338351564258         -1.521248577514
      0.5560000000D-01  0.1000000000D+01
 Atom Zn36     Shell   115 P   1     bf  325 -   327          0.359669458421         -0.338351564258         -1.521248577514
      0.1202000000D+00  0.1000000000D+01
 Atom Zn36     Shell   116 P   1     bf  328 -   330          0.359669458421         -0.338351564258         -1.521248577514
      0.3510000000D-01  0.1000000000D+01
 Atom Zn36     Shell   117 D   4     bf  331 -   335          0.359669458421         -0.338351564258         -1.521248577514
      0.6885000000D+02  0.2585320117D-01
      0.1832000000D+02  0.1651195075D+00
      0.5922000000D+01  0.4468212202D+00
      0.1927000000D+01  0.5831080264D+00
 Atom Zn36     Shell   118 D   1     bf  336 -   340          0.359669458421         -0.338351564258         -1.521248577514
      0.5528000000D+00  0.1000000000D+01
 Atom H37      Shell   119 S   3     bf  341 -   341          0.639278172984          4.004858953724          4.734653853062
      0.1873113696D+02  0.3349460434D-01
      0.2825394365D+01  0.2347269535D+00
      0.6401216923D+00  0.8137573261D+00
 Atom H37      Shell   120 S   1     bf  342 -   342          0.639278172984          4.004858953724          4.734653853062
      0.1612777588D+00  0.1000000000D+01
 Atom H38      Shell   121 S   3     bf  343 -   343         -2.279664057220          1.126499371213          3.081328687228
      0.1873113696D+02  0.3349460434D-01
      0.2825394365D+01  0.2347269535D+00
      0.6401216923D+00  0.8137573261D+00
 Atom H38      Shell   122 S   1     bf  344 -   344         -2.279664057220          1.126499371213          3.081328687228
      0.1612777588D+00  0.1000000000D+01
 Atom H39      Shell   123 S   3     bf  345 -   345         -1.878895677576         -3.740390030347          2.076646344472
      0.1873113696D+02  0.3349460434D-01
      0.2825394365D+01  0.2347269535D+00
      0.6401216923D+00  0.8137573261D+00
 Atom H39      Shell   124 S   1     bf  346 -   346         -1.878895677576         -3.740390030347          2.076646344472
      0.1612777588D+00  0.1000000000D+01
 There are   369 symmetry adapted cartesian basis functions of A   symmetry.
 There are   346 symmetry adapted basis functions of A   symmetry.
   346 basis functions,   695 primitive gaussians,   369 cartesian basis functions
    86 alpha electrons       86 beta electrons
       nuclear repulsion energy      2205.9381909946 Hartrees.
 IExCor=  402 DFT=T Ex+Corr=B3LYP ExCW=0 ScaHFX=  0.200000
 ScaDFX=  0.800000  0.720000  1.000000  0.810000 ScalE2=  1.000000  1.000000
 IRadAn=      5 IRanWt=     -1 IRanGd=            0 ICorTp=0 IEmpDi=141
 NAtoms=   39 NActive=   39 NUniq=   39 SFac= 1.00D+00 NAtFMM=   60 NAOKFM=F Big=F
 Integral buffers will be    131072 words long.
 Raffenetti 2 integral format.
 Two-electron integral symmetry is turned on.
 R6Disp:  Grimme-D3(BJ) Dispersion energy=       -0.0969439039 Hartrees.
 Nuclear repulsion after empirical dispersion term =     2205.8412470907 Hartrees.
 Leave Link  301 at Fri Oct  2 15:36:14 2020, MaxMem= 11811160064 cpu:               1.8 elap:               0.1
 (Enter /apps/gaussian/g16-a03/l302.exe)
 NPDir=0 NMtPBC=     1 NCelOv=     1 NCel=       1 NClECP=     1 NCelD=      1
         NCelK=      1 NCelE2=     1 NClLst=     1 CellRange=     0.0.
 One-electron integrals computed using PRISM.
 One-electron integral symmetry used in STVInt
   1 Symmetry operations used in ECPInt.
 ECPInt:  NShTT=    7750 NPrTT=   48331 LenC2=    7187 LenP2D=   26151.
 LDataN:  DoStor=T MaxTD1= 5 Len=  102
 NBasis=   346 RedAO= T EigKep=  2.39D-03  NBF=   346
 NBsUse=   346 1.00D-06 EigRej= -1.00D+00 NBFU=   346
 Precomputing XC quadrature grid using
 IXCGrd= 4 IRadAn=           5 IRanWt=          -1 IRanGd=           0 AccXCQ= 0.00D+00.
 Generated NRdTot=       0 NPtTot=           0 NUsed=           0 NTot=          32
 NSgBfM=   367   367   367   367   367 MxSgAt=    39 MxSgA2=    39.
 Leave Link  302 at Fri Oct  2 15:36:15 2020, MaxMem= 11811160064 cpu:              20.5 elap:               0.9
 (Enter /apps/gaussian/g16-a03/l303.exe)
 DipDrv:  MaxL=1.
 Leave Link  303 at Fri Oct  2 15:36:15 2020, MaxMem= 11811160064 cpu:               1.6 elap:               0.1
 (Enter /apps/gaussian/g16-a03/l401.exe)
 ExpMin= 3.51D-02 ExpMax= 5.48D+03 ExpMxC= 8.25D+02 IAcc=3 IRadAn=         5 AccDes= 0.00D+00
 Harris functional with IExCor=  402 and IRadAn=       5 diagonalized for initial guess.
 HarFok:  IExCor=  402 AccDes= 0.00D+00 IRadAn=         5 IDoV= 1 UseB2=F ITyADJ=14
 ICtDFT=  3500011 ScaDFX=  1.000000  1.000000  1.000000  1.000000
 FoFCou: FMM=F IPFlag=           0 FMFlag=      100000 FMFlg1=           0
         NFxFlg=           0 DoJE=T BraDBF=F KetDBF=T FulRan=T
         wScrn=  0.000000 ICntrl=       500 IOpCl=  0 I1Cent=   200000004 NGrid=           0
         NMat0=    1 NMatS0=      1 NMatT0=    0 NMatD0=    1 NMtDS0=    0 NMtDT0=    0
 Petite list used in FoFCou.
 Harris En= -1169.96731450880    
 JPrj=0 DoOrth=F DoCkMO=F.
 Leave Link  401 at Fri Oct  2 15:36:18 2020, MaxMem= 11811160064 cpu:              65.2 elap:               2.8
 (Enter /apps/gaussian/g16-a03/l502.exe)
 Integral symmetry usage will be decided dynamically.
 Closed shell SCF:
 Using DIIS extrapolation, IDIIS=  1040.
 NGot= 11811160064 LenX= 11810874821 LenY= 11810738219
 Requested convergence on RMS density matrix=1.00D-09 within  40 cycles.
 Requested convergence on MAX density matrix=1.00D-07.
 Requested convergence on             energy=1.00D-07.
 No special actions if energy rises.
 Fock matrices will be formed incrementally for  20 cycles.

 Cycle   1  Pass 1  IDiag  1:
 FoFJK:  IHMeth= 1 ICntrl=       0 DoSepK=F KAlg= 0 I1Cent=           0 FoldK=F
 IRaf= 880000000 NMat=       1 IRICut=       1 DoRegI=T DoRafI=F ISym2E= 0 IDoP0=0 IntGTp=1.
 FoFCou: FMM=F IPFlag=           0 FMFlag=      100000 FMFlg1=           0
         NFxFlg=           0 DoJE=F BraDBF=F KetDBF=F FulRan=T
         wScrn=  0.000000 ICntrl=         0 IOpCl=  0 I1Cent=           0 NGrid=           0
         NMat0=    1 NMatS0=      1 NMatT0=    0 NMatD0=    1 NMtDS0=    0 NMtDT0=    0
 Symmetry not used in FoFCou.
 E= -1168.76337414197    
 DIIS: error= 2.41D-02 at cycle   1 NSaved=   1.
 NSaved= 1 IEnMin= 1 EnMin= -1168.76337414197     IErMin= 1 ErrMin= 2.41D-02
 ErrMax= 2.41D-02  0.00D+00 EMaxC= 1.00D-01 BMatC= 8.40D-01 BMatP= 8.40D-01
 IDIUse=3 WtCom= 7.59D-01 WtEn= 2.41D-01
 Coeff-Com:  0.100D+01
 Coeff-En:   0.100D+01
 Coeff:      0.100D+01
 Gap=     0.305 Goal=   None    Shift=    0.000
 GapD=    0.305 DampG=1.000 DampE=0.250 DampFc=0.2500 IDamp=-1.
 Damping current iteration by 2.50D-01
 RMSDP=5.86D-03 MaxDP=2.19D-01              OVMax= 2.07D-01

 Cycle   2  Pass 1  IDiag  1:
 RMSU=  1.46D-03    CP:  9.95D-01
 E= -1169.01273300187     Delta-E=       -0.249358859908 Rises=F Damp=T
 DIIS: error= 1.11D-02 at cycle   2 NSaved=   2.
 NSaved= 2 IEnMin= 2 EnMin= -1169.01273300187     IErMin= 2 ErrMin= 1.11D-02
 ErrMax= 1.11D-02  0.00D+00 EMaxC= 1.00D-01 BMatC= 1.58D-01 BMatP= 8.40D-01
 IDIUse=3 WtCom= 8.89D-01 WtEn= 1.11D-01
 Coeff-Com: -0.640D+00 0.164D+01
 Coeff-En:   0.000D+00 0.100D+01
 Coeff:     -0.569D+00 0.157D+01
 Gap=     0.263 Goal=   None    Shift=    0.000
 RMSDP=1.52D-03 MaxDP=4.35D-02 DE=-2.49D-01 OVMax= 1.27D-01

 Cycle   3  Pass 1  IDiag  1:
 RMSU=  1.17D-03    CP:  9.85D-01  1.65D+00
 E= -1169.40984433793     Delta-E=       -0.397111336057 Rises=F Damp=F
 DIIS: error= 5.75D-03 at cycle   3 NSaved=   3.
 NSaved= 3 IEnMin= 3 EnMin= -1169.40984433793     IErMin= 3 ErrMin= 5.75D-03
 ErrMax= 5.75D-03  0.00D+00 EMaxC= 1.00D-01 BMatC= 3.81D-02 BMatP= 1.58D-01
 IDIUse=3 WtCom= 9.42D-01 WtEn= 5.75D-02
 Coeff-Com: -0.344D+00 0.853D+00 0.490D+00
 Coeff-En:   0.000D+00 0.000D+00 0.100D+01
 Coeff:     -0.324D+00 0.804D+00 0.520D+00
 Gap=     0.241 Goal=   None    Shift=    0.000
 RMSDP=7.14D-04 MaxDP=3.02D-02 DE=-3.97D-01 OVMax= 3.25D-02

 Cycle   4  Pass 1  IDiag  1:
 RMSU=  4.73D-04    CP:  9.88D-01  1.60D+00  5.49D-01
 E= -1169.43821907363     Delta-E=       -0.028374735700 Rises=F Damp=F
 DIIS: error= 2.87D-03 at cycle   4 NSaved=   4.
 NSaved= 4 IEnMin= 4 EnMin= -1169.43821907363     IErMin= 4 ErrMin= 2.87D-03
 ErrMax= 2.87D-03  0.00D+00 EMaxC= 1.00D-01 BMatC= 6.57D-03 BMatP= 3.81D-02
 IDIUse=3 WtCom= 9.71D-01 WtEn= 2.87D-02
 Coeff-Com: -0.100D+00 0.250D+00 0.304D+00 0.547D+00
 Coeff-En:   0.000D+00 0.000D+00 0.124D+00 0.876D+00
 Coeff:     -0.973D-01 0.242D+00 0.299D+00 0.556D+00
 Gap=     0.247 Goal=   None    Shift=    0.000
 RMSDP=2.97D-04 MaxDP=1.54D-02 DE=-2.84D-02 OVMax= 1.99D-02

 Cycle   5  Pass 1  IDiag  1:
 RMSU=  1.72D-04    CP:  9.88D-01  1.59D+00  6.43D-01  5.45D-01
 E= -1169.44223155900     Delta-E=       -0.004012485368 Rises=F Damp=F
 DIIS: error= 1.21D-03 at cycle   5 NSaved=   5.
 NSaved= 5 IEnMin= 5 EnMin= -1169.44223155900     IErMin= 5 ErrMin= 1.21D-03
 ErrMax= 1.21D-03  0.00D+00 EMaxC= 1.00D-01 BMatC= 1.67D-03 BMatP= 6.57D-03
 IDIUse=3 WtCom= 9.88D-01 WtEn= 1.21D-02
 Coeff-Com: -0.190D-01 0.494D-01 0.138D+00 0.392D+00 0.439D+00
 Coeff-En:   0.000D+00 0.000D+00 0.000D+00 0.213D+00 0.787D+00
 Coeff:     -0.188D-01 0.488D-01 0.137D+00 0.390D+00 0.443D+00
 Gap=     0.244 Goal=   None    Shift=    0.000
 RMSDP=1.13D-04 MaxDP=5.80D-03 DE=-4.01D-03 OVMax= 8.76D-03

 Cycle   6  Pass 1  IDiag  1:
 RMSU=  5.13D-05    CP:  9.87D-01  1.59D+00  6.47D-01  6.39D-01  4.80D-01
 E= -1169.44353917952     Delta-E=       -0.001307620523 Rises=F Damp=F
 DIIS: error= 2.29D-04 at cycle   6 NSaved=   6.
 NSaved= 6 IEnMin= 6 EnMin= -1169.44353917952     IErMin= 6 ErrMin= 2.29D-04
 ErrMax= 2.29D-04  0.00D+00 EMaxC= 1.00D-01 BMatC= 6.93D-05 BMatP= 1.67D-03
 IDIUse=3 WtCom= 9.98D-01 WtEn= 2.29D-03
 Coeff-Com:  0.643D-03-0.242D-03 0.393D-01 0.142D+00 0.237D+00 0.581D+00
 Coeff-En:   0.000D+00 0.000D+00 0.000D+00 0.000D+00 0.000D+00 0.100D+01
 Coeff:      0.642D-03-0.242D-03 0.392D-01 0.142D+00 0.236D+00 0.582D+00
 Gap=     0.244 Goal=   None    Shift=    0.000
 RMSDP=2.75D-05 MaxDP=1.20D-03 DE=-1.31D-03 OVMax= 1.71D-03

 Cycle   7  Pass 1  IDiag  1:
 RMSU=  1.63D-05    CP:  9.87D-01  1.60D+00  6.46D-01  6.56D-01  5.09D-01
                    CP:  6.08D-01
 E= -1169.44358816777     Delta-E=       -0.000048988249 Rises=F Damp=F
 DIIS: error= 7.67D-05 at cycle   7 NSaved=   7.
 NSaved= 7 IEnMin= 7 EnMin= -1169.44358816777     IErMin= 7 ErrMin= 7.67D-05
 ErrMax= 7.67D-05  0.00D+00 EMaxC= 1.00D-01 BMatC= 8.02D-06 BMatP= 6.93D-05
 IDIUse=1 WtCom= 1.00D+00 WtEn= 0.00D+00
 Coeff-Com:  0.181D-02-0.381D-02 0.125D-01 0.517D-01 0.107D+00 0.336D+00
 Coeff-Com:  0.495D+00
 Coeff:      0.181D-02-0.381D-02 0.125D-01 0.517D-01 0.107D+00 0.336D+00
 Coeff:      0.495D+00
 Gap=     0.244 Goal=   None    Shift=    0.000
 RMSDP=8.95D-06 MaxDP=3.70D-04 DE=-4.90D-05 OVMax= 6.27D-04

 Cycle   8  Pass 1  IDiag  1:
 RMSU=  4.68D-06    CP:  9.87D-01  1.59D+00  6.47D-01  6.52D-01  5.15D-01
                    CP:  6.55D-01  5.90D-01
 E= -1169.44359440285     Delta-E=       -0.000006235074 Rises=F Damp=F
 DIIS: error= 3.40D-05 at cycle   8 NSaved=   8.
 NSaved= 8 IEnMin= 8 EnMin= -1169.44359440285     IErMin= 8 ErrMin= 3.40D-05
 ErrMax= 3.40D-05  0.00D+00 EMaxC= 1.00D-01 BMatC= 7.66D-07 BMatP= 8.02D-06
 IDIUse=1 WtCom= 1.00D+00 WtEn= 0.00D+00
 Coeff-Com:  0.101D-02-0.217D-02 0.448D-02 0.192D-01 0.464D-01 0.150D+00
 Coeff-Com:  0.295D+00 0.486D+00
 Coeff:      0.101D-02-0.217D-02 0.448D-02 0.192D-01 0.464D-01 0.150D+00
 Coeff:      0.295D+00 0.486D+00
 Gap=     0.244 Goal=   None    Shift=    0.000
 RMSDP=2.77D-06 MaxDP=1.44D-04 DE=-6.24D-06 OVMax= 2.98D-04

 Cycle   9  Pass 1  IDiag  1:
 RMSU=  1.92D-06    CP:  9.87D-01  1.59D+00  6.47D-01  6.51D-01  5.20D-01
                    CP:  6.57D-01  6.11D-01  6.44D-01
 E= -1169.44359494665     Delta-E=       -0.000000543804 Rises=F Damp=F
 DIIS: error= 1.11D-05 at cycle   9 NSaved=   9.
 NSaved= 9 IEnMin= 9 EnMin= -1169.44359494665     IErMin= 9 ErrMin= 1.11D-05
 ErrMax= 1.11D-05  0.00D+00 EMaxC= 1.00D-01 BMatC= 1.10D-07 BMatP= 7.66D-07
 IDIUse=1 WtCom= 1.00D+00 WtEn= 0.00D+00
 Coeff-Com:  0.400D-03-0.844D-03 0.110D-02 0.475D-02 0.147D-01 0.467D-01
 Coeff-Com:  0.117D+00 0.308D+00 0.508D+00
 Coeff:      0.400D-03-0.844D-03 0.110D-02 0.475D-02 0.147D-01 0.467D-01
 Coeff:      0.117D+00 0.308D+00 0.508D+00
 Gap=     0.244 Goal=   None    Shift=    0.000
 RMSDP=9.61D-07 MaxDP=4.71D-05 DE=-5.44D-07 OVMax= 7.83D-05

 Cycle  10  Pass 1  IDiag  1:
 RMSU=  6.38D-07    CP:  9.87D-01  1.59D+00  6.47D-01  6.51D-01  5.20D-01
                    CP:  6.56D-01  6.19D-01  7.03D-01  6.68D-01
 E= -1169.44359502536     Delta-E=       -0.000000078709 Rises=F Damp=F
 DIIS: error= 2.89D-06 at cycle  10 NSaved=  10.
 NSaved=10 IEnMin=10 EnMin= -1169.44359502536     IErMin=10 ErrMin= 2.89D-06
 ErrMax= 2.89D-06  0.00D+00 EMaxC= 1.00D-01 BMatC= 1.14D-08 BMatP= 1.10D-07
 IDIUse=1 WtCom= 1.00D+00 WtEn= 0.00D+00
 Coeff-Com:  0.816D-04-0.164D-03-0.900D-04-0.348D-03 0.116D-02 0.237D-02
 Coeff-Com:  0.205D-01 0.998D-01 0.293D+00 0.584D+00
 Coeff:      0.816D-04-0.164D-03-0.900D-04-0.348D-03 0.116D-02 0.237D-02
 Coeff:      0.205D-01 0.998D-01 0.293D+00 0.584D+00
 Gap=     0.244 Goal=   None    Shift=    0.000
 RMSDP=3.05D-07 MaxDP=1.55D-05 DE=-7.87D-08 OVMax= 1.56D-05

 Cycle  11  Pass 1  IDiag  1:
 RMSU=  1.89D-07    CP:  9.87D-01  1.59D+00  6.47D-01  6.51D-01  5.20D-01
                    CP:  6.56D-01  6.23D-01  7.09D-01  7.24D-01  6.97D-01
 E= -1169.44359503419     Delta-E=       -0.000000008828 Rises=F Damp=F
 DIIS: error= 7.87D-07 at cycle  11 NSaved=  11.
 NSaved=11 IEnMin=11 EnMin= -1169.44359503419     IErMin=11 ErrMin= 7.87D-07
 ErrMax= 7.87D-07  0.00D+00 EMaxC= 1.00D-01 BMatC= 5.95D-10 BMatP= 1.14D-08
 IDIUse=1 WtCom= 1.00D+00 WtEn= 0.00D+00
 Coeff-Com:  0.269D-05-0.287D-05-0.126D-03-0.533D-03-0.677D-03-0.278D-02
 Coeff-Com: -0.625D-03 0.183D-01 0.855D-01 0.262D+00 0.639D+00
 Coeff:      0.269D-05-0.287D-05-0.126D-03-0.533D-03-0.677D-03-0.278D-02
 Coeff:     -0.625D-03 0.183D-01 0.855D-01 0.262D+00 0.639D+00
 Gap=     0.244 Goal=   None    Shift=    0.000
 RMSDP=9.67D-08 MaxDP=3.91D-06 DE=-8.83D-09 OVMax= 3.88D-06

 Cycle  12  Pass 1  IDiag  1:
 RMSU=  5.68D-08    CP:  9.87D-01  1.59D+00  6.47D-01  6.51D-01  5.20D-01
                    CP:  6.56D-01  6.24D-01  7.13D-01  7.33D-01  7.38D-01
                    CP:  7.22D-01
 E= -1169.44359503468     Delta-E=       -0.000000000496 Rises=F Damp=F
 DIIS: error= 2.79D-07 at cycle  12 NSaved=  12.
 NSaved=12 IEnMin=12 EnMin= -1169.44359503468     IErMin=12 ErrMin= 2.79D-07
 ErrMax= 2.79D-07  0.00D+00 EMaxC= 1.00D-01 BMatC= 7.08D-11 BMatP= 5.95D-10
 IDIUse=1 WtCom= 1.00D+00 WtEn= 0.00D+00
 Coeff-Com: -0.426D-05 0.997D-05-0.506D-04-0.227D-03-0.390D-03-0.148D-02
 Coeff-Com: -0.163D-02 0.206D-02 0.214D-01 0.880D-01 0.327D+00 0.566D+00
 Coeff:     -0.426D-05 0.997D-05-0.506D-04-0.227D-03-0.390D-03-0.148D-02
 Coeff:     -0.163D-02 0.206D-02 0.214D-01 0.880D-01 0.327D+00 0.566D+00
 Gap=     0.244 Goal=   None    Shift=    0.000
 RMSDP=2.92D-08 MaxDP=1.25D-06 DE=-4.96D-10 OVMax= 1.47D-06

 Cycle  13  Pass 1  IDiag  1:
 RMSU=  1.82D-08    CP:  9.87D-01  1.59D+00  6.47D-01  6.51D-01  5.20D-01
                    CP:  6.56D-01  6.24D-01  7.14D-01  7.35D-01  7.39D-01
                    CP:  7.67D-01  6.66D-01
 E= -1169.44359503472     Delta-E=       -0.000000000040 Rises=F Damp=F
 DIIS: error= 9.65D-08 at cycle  13 NSaved=  13.
 NSaved=13 IEnMin=13 EnMin= -1169.44359503472     IErMin=13 ErrMin= 9.65D-08
 ErrMax= 9.65D-08  0.00D+00 EMaxC= 1.00D-01 BMatC= 7.74D-12 BMatP= 7.08D-11
 IDIUse=1 WtCom= 1.00D+00 WtEn= 0.00D+00
 Coeff-Com: -0.252D-05 0.566D-05-0.126D-04-0.645D-04-0.134D-03-0.495D-03
 Coeff-Com: -0.773D-03-0.909D-03 0.209D-02 0.186D-01 0.107D+00 0.302D+00
[...]
 00246,0.00005979,0.00000090,0.00007960,0.00004042,-0.00004712,-0.00002
 804,-0.00000698,-0.00003078,0.00008244,0.00002898,0.00016974,-0.000118
 42,0.00010807,0.00011437,-0.00027770,0.00493235,-0.00417398,-0.0025204
 2,-0.01961821,-0.02536575,0.01012843,-0.12127194,-0.17464534,0.0360498
 8,0.00248575,0.00535443,-0.00339298,-0.00007806,0.00007551,-0.00001050
 ,-0.00007430,0.00004423,0.00003228,-0.00015668,0.00001453,0.00017257,-
 0.00006734,-0.00011860,0.00013804,0.00120240,-0.00091625,-0.00040359,0
 .00109140,-0.00009573,0.00093333,0.00278661,0.01108425,-0.00347387,-0.
 00012620,0.00010338,-0.00003123,-0.00005737,0.00038670,0.00002445,-0.0
 0001643,0.00000954,-0.00000364,-0.00000341,0.00000822,0.00000496,-0.00
 000953,0.00001278,-0.00000362,0.00002021,-0.00002255,0.00000646,0.0000
 0674,0.00000267,-0.00001155,-0.00004140,0.00002573,-0.00000783,0.00000
 992,0.00000901,0.00000798,-0.00004314,-0.00001457,-0.00001293,-0.00003
 910,0.00005573,0.00004619,0.00011546,0.00022045,0.00002939,-0.00107490
 ,-0.00159107,0.00086049,-0.00033249,0.00108816,-0.00072611,0.00008066,
 0.00083812,0.00046311,0.12814164,0.18869917,-0.00022434,0.00001753,-0.
 00024949,-0.00000354,-0.00001676,0.00003854,0.00001238,-0.00004345,-0.
 00000942,0.00013675,0.00003736,-0.00025528,-0.00001401,0.00002072,0.00
 002187,-0.00000099,0.00001121,-0.00003227,0.00001221,0.00000765,0.0000
 8969,0.00003934,-0.00011407,-0.00011779,0.00073863,-0.00034840,0.00060
 921,-0.00232602,-0.00441816,0.00266199,0.03907508,0.03880431,-0.060364
 76,0.01938477,0.02315438,-0.00217597,0.00031075,0.00006403,0.00015530,
 0.00009804,-0.00002778,0.00006585,0.00002060,0.00013645,0.00009007,-0.
 00000596,0.00006362,0.00002667,0.00455327,-0.00290480,-0.00378701,-0.0
 0131613,-0.00336915,0.00077860,-0.02818730,-0.01278138,0.00053438,0.00
 001631,-0.00000801,0.00012475,-0.00004976,0.00012137,-0.00010969,0.000
 00259,-0.00000215,0.00000910,0.00001818,0.00000255,-0.00003346,-0.0000
 1235,0.00000514,0.00001529,0.00007576,0.00010774,0.00020345,-0.0001064
 0,-0.00003276,0.00003461,0.00001090,0.00000245,0.00000194,-0.00000631,
 -0.00002111,-0.00000434,0.00000430,-0.00000256,0.00000421,0.00003002,0
 .00001530,0.00000871,-0.00005923,-0.00030228,0.00011740,-0.00004161,-0
 .00006505,0.00017409,-0.00057956,0.00050868,0.00032159,0.00002062,0.00
 091372,0.00045744,-0.02970758,-0.03744404,0.06386653,-0.03071828,0.008
 78268,-0.00752108,-0.00903007,0.00139086,-0.00485394,0.00023186,0.0013
 3470,-0.00016716,0.00384113,0.00401221,-0.00242970,-0.00127967,-0.0075
 8846,-0.00288520,0.00192475,-0.00053539,0.00039061,0.00476424,0.007797
 37,0.00046962,-0.00079766,0.00428228,-0.00158090,-0.00732117,0.0025325
 0,0.00263687,-0.00082863,0.00022974,0.00004485,-0.00036320,-0.00169720
 ,0.00132915,-0.02305201,-0.00663763,-0.00065483,-0.04080144,0.01825584
 ,0.02576766,0.01213907,-0.00449797,-0.00032172,-0.00872246,0.00646654,
 -0.00428393,0.00035451,-0.00289210,0.00130884,-0.01843673,-0.02453200,
 -0.00328232,0.00619105,0.00099446,0.00340791,0.00007698,0.00107149,-0.
 00459201,-0.01231309,-0.00203904,-0.00671460,-0.00797344,-0.00086297,0
 .00131937,0.00079481,0.00047022,0.00128518,0.00024235,0.00013580,-0.00
 057827,-0.00011510,-0.00032602,0.00072679,-0.00054993,-0.00012667,0.00
 162670,0.00002718,-0.00072774,0.00250682,0.00039002,0.00164036,0.00112
 210,-0.00055346,-0.00121155,-0.00005141,-0.00103212,0.00027687,0.00005
 329,-0.00062537,-0.00234076,-0.00029774,-0.00150909,0.00119477,-0.0005
 6152,0.00098057,-0.00117930,-0.00086684,0.00034408,-0.00024452,-0.0005
 8723,0.00021727,0.00016532,0.00002530,0.00039936,0.00035551,-0.0007195
 4,0.13120712,0.01380356,-0.00318135,0.00735866,-0.00030413,0.00352190,
 0.00172923,0.00065259,0.00073931,0.00081587,0.00214416,0.00173058,0.00
 010416,-0.00483770,-0.00003463,-0.00628642,-0.00165227,-0.00148408,-0.
 00172614,0.00395614,-0.00693784,-0.00518518,0.00487655,-0.03449678,-0.
 00930071,0.00520381,0.00075002,0.00168922,-0.00035195,0.00208496,-0.00
 072688,0.00050748,0.00093469,-0.00066800,-0.02893746,0.00004425,0.0002
 0570,0.01480535,-0.01645390,-0.01317238,-0.00525657,0.00267658,-0.0017
 7036,0.00467856,-0.04904773,0.03075824,0.00042870,0.01345237,0.0007116
 6,-0.01774199,-0.04557049,-0.00443891,0.01237992,-0.00102174,0.0056158
 8,0.00277029,-0.00265594,-0.00388018,-0.00073987,-0.00947990,-0.001140
 75,0.00088022,-0.00877229,-0.00220133,0.00042082,-0.00097718,-0.000537
 15,0.00013047,-0.00180480,0.00058206,-0.00024510,-0.00065318,-0.000494
 59,0.00009005,0.00038824,0.00062128,-0.00010386,-0.00077074,0.00049679
 ,0.00021628,-0.00147989,0.00082838,-0.00204889,-0.00129856,0.00010001,
 0.00015038,0.00009646,-0.00001212,-0.00100569,0.00020824,0.00135754,0.
 00073112,0.00088056,-0.00015103,-0.00139298,-0.00006530,-0.00027101,0.
 00012337,-0.00111986,-0.00015890,-0.00037760,-0.00056851,0.00031163,0.
 00081141,-0.00045150,-0.00077072,-0.00074098,0.15895899,0.01128351,-0.
 00000321,0.01637596,-0.00864009,0.00634420,-0.00048229,-0.00080237,-0.
 00022612,-0.00045384,-0.00185150,0.00324842,-0.00726993,-0.00286474,-0
 .00887885,-0.00071331,0.00113020,0.00027499,-0.00145783,-0.00146793,-0
 .01082999,-0.00200200,-0.00347851,0.01082084,0.01789077,0.00565455,0.0
 0170362,0.00437820,-0.00032993,0.00040889,-0.00155742,0.00359455,-0.00
 074070,0.00123759,-0.00178438,0.00035901,0.00166896,0.01369885,-0.0092
 4239,-0.02504151,-0.00715241,0.00140294,-0.00459973,-0.00105904,0.0170
 9197,-0.02745066,0.00084546,-0.00812152,-0.00484511,0.00246400,0.00397
 773,-0.00413538,-0.00047967,0.00108638,-0.00243401,-0.00201370,-0.0024
 0742,-0.00204394,-0.00458031,-0.00361001,-0.01355889,-0.00050003,0.001
 04131,-0.00795255,0.00222367,-0.00117486,-0.00041879,-0.00018768,0.000
 62548,0.00006052,0.00055592,-0.00016972,0.00003672,0.00014212,-0.00024
 269,-0.00052598,0.00091211,-0.00019816,0.00177139,0.00134733,0.0021017
 2,0.00098896,0.00039258,0.00063651,-0.00004900,0.00018369,0.00055612,0
 .00064301,-0.00009821,0.00211306,-0.00064093,-0.00149894,-0.00000329,-
 0.00085656,-0.00245170,0.00085957,-0.00054549,0.00032296,-0.00020742,-
 0.00012103,-0.00047115,-0.00015364,0.00012721,-0.00054442,-0.00020776,
 -0.00016331,-0.00649652,-0.01058936,0.06737614,0.00000218,-0.00016082,
 -0.00017430,0.00008903,-0.00028089,-0.00016036,-0.00010215,0.00003653,
 -0.00020704,0.00049354,0.00043298,0.00057545,-0.00871122,-0.00847725,0
 .02770961,-0.06242918,-0.01567346,0.05434830,0.00344234,0.00688476,-0.
 02964413,-0.00632433,-0.00152705,0.00149176,0.00011358,0.00025818,0.00
 002354,0.00007130,-0.00001680,0.00006258,-0.00000823,0.00000750,0.0000
 0805,-0.00000866,0.00002054,-0.00003055,0.00016460,0.00004872,0.000134
 46,0.00003192,0.00005459,0.00004114,0.00197194,-0.00111420,-0.00172517
 ,0.00130697,0.00093959,-0.00064131,0.00004188,-0.00003819,0.00003159,0
 .00001482,-0.00001716,0.00002586,-0.00002805,-0.00002689,0.00001704,0.
 00086992,-0.00065710,-0.00088221,0.00166689,0.00198717,0.00007264,0.00
 006807,-0.00002725,0.00006031,0.00007051,-0.00001576,-0.00007238,-0.00
 000328,0.00004209,-0.00001192,0.00010386,0.00012639,-0.00019745,-0.000
 32102,-0.00000281,-0.00039798,0.00085082,-0.00054747,-0.00049152,-0.00
 402667,0.00397408,0.00106933,-0.00262751,-0.00175931,0.00773821,0.0011
 7010,0.00010014,0.00097245,0.00007418,0.00000282,0.00009178,0.00003042
 ,0.00002651,-0.00004695,-0.00002012,-0.00002083,0.00002398,0.00001184,
 0.00002126,-0.00001102,0.00000350,-0.00000356,-0.00000231,-0.00056344,
 0.00038521,-0.00047042,0.07255804,-0.00003948,0.00004555,-0.00014845,0
 .00008781,0.00022469,0.00015960,0.00001059,0.00000996,-0.00004125,-0.0
 0016107,-0.00059440,0.00020933,0.00553303,0.00452725,-0.01828656,-0.01
 528276,-0.06856806,0.06119149,-0.00121153,-0.00040212,-0.00394956,-0.0
 0047216,-0.00092488,-0.00058775,-0.00003711,0.00013382,-0.00014265,0.0
 0003532,-0.00003345,0.00008832,-0.00006508,-0.00000293,-0.00004365,-0.
 00009232,-0.00002021,-0.00003470,-0.00004635,-0.00003860,0.00005416,-0
 .00007894,0.00002740,0.00009734,0.00014061,0.00056508,0.00048428,0.000
 48316,0.00085607,0.00037067,0.00007168,0.00006680,0.00002231,0.0000451
 8,0.00001422,0.00004323,0.00007799,0.00008220,0.00003099,-0.00068929,0
 .00142714,-0.00024678,0.00046616,0.00125232,-0.00117914,-0.00008334,0.
 00002463,-0.00002536,-0.00003836,0.00001704,0.00003592,-0.00003009,0.0
 0003381,0.00001918,0.00015079,-0.00038658,0.00012814,0.00013006,-0.000
 12446,0.00016690,-0.00094189,0.00041889,0.00052161,0.00315823,-0.00135
 812,-0.00132063,-0.00716025,-0.00710769,0.03064309,0.00011244,-0.00019
 513,0.00033853,-0.00000325,-0.00005459,0.00002848,0.00006624,-0.000051
 12,0.00001879,0.00000218,0.00000375,-0.00001991,0.00002849,0.00002286,
 -0.00001237,0.00001872,0.00001200,0.00000165,0.00020575,-0.00006322,-0
 .00007547,0.01581232,0.07018016,-0.00033361,0.00005172,-0.00025480,-0.
 00009439,-0.00003432,0.00013197,0.00006289,-0.00023069,0.00021734,-0.0
 0001015,0.00012815,-0.00043036,0.00339785,0.00287744,-0.01071833,0.055
 97052,0.06159562,-0.26261780,0.00266948,0.00646692,-0.02286507,-0.0056
 5534,-0.00016354,0.00314098,-0.00023698,-0.00004004,0.00050684,0.00002
 201,-0.00002560,-0.00007892,-0.00014511,0.00004741,-0.00007123,0.00018
 496,-0.00000503,-0.00013682,0.00023757,-0.00021801,0.00025757,0.000134
 87,-0.00006055,0.00008998,0.00110757,-0.00149781,-0.00135623,0.0011146
 6,0.00049540,-0.00077099,-0.00017004,-0.00014723,0.00018462,-0.0000424
 4,-0.00001103,0.00008829,0.00010331,0.00004965,0.00022615,-0.00002984,
 0.00022134,0.00040487,0.00132925,0.00062503,0.00163516,-0.00007293,0.0
 0004461,-0.00001539,-0.00006132,0.00005268,0.00005475,-0.00003409,-0.0
 0000816,0.00003559,-0.00042970,-0.00025519,0.00002318,0.00032644,0.000
 12883,0.00024134,0.00027575,-0.00036067,0.00090288,0.00169238,-0.00102
 148,0.00073424,-0.00035286,0.00042662,0.00129632,-0.00026744,0.0001362
 7,0.00087173,0.00030984,0.00004763,0.00012121,0.00010143,-0.00000788,-
 0.00006428,-0.00005300,-0.00000699,0.00006242,-0.00000448,-0.00000363,
 0.00002163,0.00002674,-0.00000887,0.00001863,0.00012429,0.00116630,-0.
 00061903,-0.06011630,-0.06873777,0.28881033,0.00030169,0.00019136,0.00
 090606,-0.00001969,0.00037530,0.00004619,0.00027257,0.00039613,0.00014
 298,-0.00190667,-0.00042511,-0.00021866,-0.00070970,-0.00072617,-0.000
 04396,0.00011994,-0.00080274,0.00243428,-0.00100673,-0.00141305,0.0162
 3131,-0.00102115,-0.00241056,-0.00145868,-0.00705648,0.01177664,-0.038
 40491,0.00181686,-0.00046671,-0.00163136,-0.00042569,-0.00112040,-0.00
 001057,0.00059351,0.00016781,-0.00077889,-0.00044880,0.00004989,-0.000
 65606,0.00001519,-0.00010975,-0.00039393,-0.00074714,-0.00057176,0.001
 25933,-0.00030289,-0.00212354,0.00195973,-0.00073631,0.00002334,0.0001
 6306,-0.00017014,-0.00008986,0.00031931,-0.00151987,0.00031762,0.00040
 580,0.00008692,-0.00030730,-0.00039209,-0.04793510,-0.01399719,-0.0099
 7600,0.00019207,-0.00010187,-0.00000992,0.00000058,-0.00006527,-0.0000
 1066,0.00014875,-0.00011482,-0.00008909,0.00008841,0.00149081,-0.00101
 697,0.00032395,0.00008439,-0.00005968,0.00004988,0.00014511,0.00003085
 ,0.00025920,0.00007082,-0.00008141,0.00009274,0.00034712,-0.00027268,0
 .00007719,0.00019310,-0.00046197,-0.00543851,0.00059205,-0.00108996,-0
 .00113072,0.00042628,-0.00045494,-0.00078351,-0.00014312,0.00122030,0.
 00038138,0.00067273,0.00032922,-0.00005019,0.00003399,-0.00005754,0.00
 156834,-0.00195224,0.00276200,-0.00004630,-0.00020042,-0.00109243,0.06
 439369,-0.00006791,-0.00010855,-0.00030777,-0.00018980,-0.00009601,0.0
 0009745,-0.00008946,-0.00020690,0.00000450,0.00163937,0.00042357,-0.00
 057485,-0.00044790,0.00096601,-0.00018510,0.00072635,0.00202766,0.0014
 3332,-0.00222267,-0.01556569,0.03318268,-0.00019153,-0.00560293,-0.005
 22885,0.00204696,0.00001691,-0.00194957,-0.00133397,0.00126287,-0.0009
 6630,-0.00414880,-0.00002944,-0.00281560,-0.00008140,-0.00021769,-0.00
 130993,0.00009774,-0.00015858,0.00023102,-0.00002021,0.00003350,0.0001
 2013,0.00120619,0.00255746,-0.00082554,-0.00059203,-0.00061563,0.00245
 050,-0.00015732,-0.00079916,0.00134689,0.00038992,-0.00023047,0.001067
 77,0.00225811,0.00236450,0.00216475,-0.00031844,-0.00037506,0.00049265
 ,-0.00610646,-0.07674432,0.11074814,-0.00009615,0.00000601,-0.00000374
 ,0.00005044,-0.00006974,-0.00006333,-0.00008507,-0.00000415,0.00004867
 ,0.00097209,-0.00079357,0.00118513,-0.00053081,-0.00009384,0.00003589,
 -0.00001519,-0.00015557,-0.00002981,0.00013583,-0.00027109,-0.00007628
 ,0.00102241,0.00013378,-0.00015602,0.00030499,-0.00047584,0.00017683,-
 0.00256452,0.00040424,-0.00159739,0.00013854,-0.00047939,0.00065236,0.
 00005893,0.00019159,0.00001778,0.00012456,-0.00055063,0.00010674,0.000
 61607,-0.00005384,0.00026304,-0.00143138,0.00305692,-0.00177171,-0.000
 80754,0.00001983,-0.00169304,0.00885415,0.09189337,-0.00000122,-0.0000
 5837,-0.00022565,0.00000064,-0.00029892,-0.00023282,-0.00007499,0.0000
 3119,-0.00005716,-0.00027996,0.00000217,0.00061359,0.00037854,0.000522
 77,-0.00020740,-0.00042763,-0.00126623,0.00248774,0.00174401,-0.005081
 82,-0.00041123,-0.00047144,-0.00123345,0.00079433,0.00187358,-0.000197
 54,-0.01241983,0.00029034,-0.00008503,0.00241070,-0.00152445,-0.000623
 80,-0.00109977,-0.00080771,-0.00002946,-0.00063500,0.00001130,-0.00008
 177,0.00022344,-0.00004743,0.00004340,0.00011602,0.00063063,0.00069730
 ,-0.00035740,0.00023663,0.00132099,-0.00010739,0.00038287,0.00004693,0
 .00061536,0.00032222,-0.00017169,0.00046109,0.00144399,0.00342786,-0.0
 0033732,-0.00042368,0.00038819,-0.00013010,-0.03074146,0.13793345,-0.3
 7532523,-0.00013440,0.00008504,-0.00000730,0.00002376,-0.00003988,-0.0
 0002857,-0.00005084,0.00002439,0.00000372,-0.00038938,0.00023910,0.000
 51148,-0.00012687,-0.00004297,-0.00008990,-0.00011487,-0.00011148,-0.0
 0001591,-0.00006211,-0.00008136,-0.00001825,-0.00036335,-0.00009068,-0
 .00003476,-0.00026484,-0.00075231,0.00011885,-0.00326485,0.00068318,0.
 00027718,0.00103354,-0.00012630,0.00031990,-0.00049223,-0.00082011,0.0
 0004105,0.00034647,0.00028902,0.00000318,0.00022413,0.00002688,0.00008
 143,-0.00009477,0.00161455,-0.00310167,0.00078739,0.00021576,0.0000588
 0,0.03034564,-0.13507682,0.38598418,-0.00034138,0.00022532,0.00052057,
 0.00003376,-0.00002740,-0.00002012,-0.00060629,-0.00078237,-0.00031293
 ,-0.00064059,-0.00059387,-0.00022136,0.00018327,-0.00047828,0.00000167
 ,0.00013163,-0.00001848,0.00000605,0.00032382,0.00020498,0.00006721,0.
 00009751,-0.00025127,-0.00034333,0.00041024,0.00040694,-0.00004518,-0.
 00205918,-0.00090100,-0.00108848,-0.04524770,0.01017386,0.00810974,0.0
 0303740,0.00029667,-0.00710704,0.00001354,0.00018052,-0.00038365,0.000
 24620,-0.00016646,-0.00025719,-0.00031233,0.00027638,0.00017020,-0.000
 07644,0.00005568,0.00012623,-0.00642265,0.00058444,0.00344386,-0.00160
 582,-0.00000934,0.00340876,-0.26627660,0.07007901,0.15923299,-0.000055
 31,0.00067016,-0.00017044,-0.00099171,-0.00053480,0.00018882,0.0000647
 8,0.00014879,-0.00006822,-0.00052182,0.00085134,0.00034983,0.00033147,
 0.00026372,0.00012246,-0.00000210,-0.00092923,-0.00088839,0.00030362,0
 .00031440,0.00001058,0.00000451,0.00015454,0.00004238,0.00002941,0.000
 08482,0.00000651,-0.00008480,0.00003135,-0.00000622,-0.00008900,-0.000
 05395,0.00001610,-0.00002957,-0.00005205,0.00004430,-0.00014920,-0.000
 13921,0.00000208,-0.00005340,-0.00008812,0.00011333,0.00023006,0.00043
 175,0.00015324,-0.00180003,0.00139557,-0.00114003,0.00089168,-0.002457
 16,0.00171016,-0.00000207,-0.00000309,0.00001067,0.00067273,0.00085589
 ,0.00008280,0.32036234,-0.00032940,0.00024187,0.00018312,-0.00034534,0
 .00033589,-0.00012152,0.00019841,0.00065530,0.00051097,-0.00125083,0.0
 0008307,0.00045402,0.00004986,-0.00033682,0.00001881,-0.00003282,0.000
 00616,-0.00003312,-0.00079992,-0.00042033,0.00003356,-0.00007573,-0.00
 018202,0.00046111,0.00160746,-0.00005378,0.00029030,0.00374872,-0.0011
 4448,0.00180876,0.00623993,-0.00153743,-0.00275039,0.00042085,0.003480
 10,0.00011542,0.00021001,-0.00031810,-0.00010892,0.00028658,-0.0002614
 3,-0.00018903,0.00008434,0.00010573,-0.00042140,0.00006472,0.00028757,
 -0.00029380,-0.00097294,-0.00754368,-0.00151623,-0.00042315,0.00015790
 ,-0.00078136,0.07513723,-0.02804168,-0.05126420,0.00051243,0.00001291,
 -0.00010511,-0.00026840,0.00165740,-0.00026933,0.00012060,-0.00015395,
 0.00007608,0.00017350,-0.00009303,-0.00027133,0.00009725,-0.00017105,-
 0.00007789,-0.00052692,-0.00045425,-0.00168185,0.00063494,0.00007332,-
 0.00007775,0.00008516,0.00008581,0.00007027,-0.00000044,0.00005879,-0.
 00001205,0.00004048,0.00004044,-0.00000107,0.00004301,0.00041282,-0.00
 000398,-0.00020855,-0.00002373,-0.00007448,-0.00038494,0.00008915,0.00
 000002,-0.00018614,0.00039756,0.00033967,0.00053514,-0.00112683,0.0003
 8263,-0.00324768,-0.00069883,-0.00158630,-0.00198356,-0.00113466,0.004
 20154,0.00001293,-0.00003992,-0.00002409,0.00093324,-0.00166016,-0.001
 32218,-0.08020004,0.03721439,0.00180593,-0.00004302,0.00210357,0.00014
 232,0.00014867,-0.00019857,-0.00024923,0.00033757,-0.00003578,-0.00155
 603,-0.00059443,0.00169868,0.00004452,-0.00004599,-0.00021246,0.000067
 45,-0.00001197,0.00017434,0.00019318,0.00002454,-0.00039271,-0.0003351
 6,0.00095324,0.00112811,-0.00077859,-0.00002095,0.00066770,-0.00329608
 ,0.00094848,-0.00359976,-0.02040435,0.00575270,0.01830720,-0.02402324,
 0.00070235,-0.00536707,-0.00230790,-0.00041574,-0.00127830,-0.00077182
 ,0.00020406,-0.00056502,-0.00001893,-0.00123569,-0.00087141,0.00006442
 ,-0.00054002,-0.00029591,0.00725113,-0.00610335,0.00693570,0.00680117,
 0.00083418,0.00103343,0.20004304,-0.06069909,-0.18861650,0.00004292,0.
 00002548,-0.00101652,0.00038362,-0.00041543,-0.00058374,-0.00002208,0.
 00004792,-0.00011533,-0.00008579,0.00002142,0.00057776,0.00007279,-0.0
 0003287,-0.00012434,-0.00013636,-0.00129133,-0.00124515,0.00078951,0.0
 0029322,-0.00028950,-0.00007247,-0.00005487,-0.00002366,0.00006105,0.0
 0015392,-0.00000071,-0.00000410,0.00002345,-0.00000643,-0.00002119,-0.
 00011438,-0.00006301,-0.00007146,0.00032559,-0.00022115,0.00014702,0.0
 0005084,-0.00019682,0.00031415,-0.00068517,-0.00038771,-0.00086277,0.0
 0158402,-0.00012673,-0.00281880,-0.00037102,-0.00320854,0.00539591,0.0
 0741496,0.00048474,-0.00000211,-0.00001777,-0.00013756,0.00010628,-0.0
 0119461,-0.00027938,-0.16588796,0.05404109,0.17634855\\-0.00000193,0.0
 0000129,-0.00000063,0.00000092,0.00000022,-0.00000045,0.00000083,0.000
 00010,-0.00000066,0.00000109,0.00000016,0.00000003,0.00000006,0.000000
 05,-0.00000096,-0.00000038,-0.00000009,-0.00000007,-0.00000029,-0.0000
 0050,0.00000023,-0.00000016,0.00000009,-0.00000027,0.00000018,-0.00000
 019,0.00000059,-0.00000068,-0.00000077,0.00000116,0.00000148,0.0000001
 0,0.00000157,-0.00000032,-0.00000047,0.00000060,-0.00000045,-0.0000001
 8,-0.00000028,0.00000103,0.00000025,-0.00000180,-0.00000295,0.00000019
 ,-0.00000029,-0.00000070,-0.00000045,0.00000028,0.00000026,-0.00000037
 ,-0.00000011,-0.00000054,-0.00000048,0.00000066,0.00000007,0.00000002,
 0.00000069,-0.00000089,0.00000073,-0.00000113,0.00000036,0.00000044,-0
 .00000002,-0.00000011,0.00000070,-0.00000134,0.00000068,0.00000034,-0.
 00000044,0.00000068,0.00000077,-0.00000121,0.00000068,0.00000003,-0.00
 000022,0.00000079,0.00000039,-0.00000066,-0.00000006,0.00000052,-0.000
 00101,-0.00000059,0.00000042,-0.00000034,-0.00000036,0.00000056,-0.000
 00034,-0.00000087,-0.00000018,0.00000034,-0.00000072,-0.00000044,0.000
 00106,-0.00000032,-0.00000066,0.00000105,0.00000041,-0.00000077,0.0000
 0090,0.00000018,-0.00000068,0.00000135,0.00000036,-0.00000111,0.000001
 19,0.00000100,0.00000071,0.00000016,0.00000025,0.00000013,-0.00000031,
 0.00000021,-0.00000036,0.00000069,0.00000080,-0.00000053,-0.00000002\\
 \@


 THE POLHOLDE ROLLS WITHOUT SLIPPING ON THE HERPOLHOLDE LYING IN
 THE INVARIABLE PLANE.
 H.GOLDSTEIN, "CLASSICAL MECHANICS", PG 161
 Job cpu time:       0 days  5 hours 10 minutes  7.6 seconds.
 Elapsed time:       0 days  0 hours 13 minutes  0.9 seconds.
 File lengths (MBytes):  RWF=    589 Int=      0 D2E=      0 Chk=      9 Scr=      1
 Normal termination of Gaussian 16 at Fri Oct  2 15:49:38 2020.
