 Default is to use a total of   8 processors:
                                8 via shared-memory
                                1 via Linda
 Entering Link 1 = C:\G16W\l1.exe PID=     15488.
  
 Copyright (c) 1988-2019, Gaussian, Inc.  All Rights Reserved.
  
 This is part of the Gaussian(R) 16 program.  It is based on
 the Gaussian(R) 09 system (copyright 2009, Gaussian, Inc.),
 the Gaussian(R) 03 system (copyright 2003, Gaussian, Inc.),
 the Gaussian(R) 98 system (copyright 1998, Gaussian, Inc.),
 the Gaussian(R) 94 system (copyright 1995, Gaussian, Inc.),
 the Gaussian 92(TM) system (copyright 1992, Gaussian, Inc.),
 the Gaussian 90(TM) system (copyright 1990, Gaussian, Inc.),
 the Gaussian 88(TM) system (copyright 1988, Gaussian, Inc.),
 the Gaussian 86(TM) system (copyright 1986, Carnegie Mellon
 University), and the Gaussian 82(TM) system (copyright 1983,
 Carnegie Mellon University). Gaussian is a federally registered
 trademark of Gaussian, Inc.
  
 This software contains proprietary and confidential information,
 including trade secrets, belonging to Gaussian, Inc.
  
 This software is provided under written license and may be
 used, copied, transmitted, or stored only in accord with that
 written license.
  
 The following legend is applicable only to US Government
 contracts under FAR:
  
                    RESTRICTED RIGHTS LEGEND
  
 Use, reproduction and disclosure by the US Government is
 subject to restrictions as set forth in subparagraphs (a)
 and (c) of the Commercial Computer Software - Restricted
 Rights clause in FAR 52.227-19.
  
 Gaussian, Inc.
 340 Quinnipiac St., Bldg. 40, Wallingford CT 06492
  
  
 ---------------------------------------------------------------
 Warning -- This program may not be used in any manner that
 competes with the business of Gaussian, Inc. or will provide
 assistance to any competitor of Gaussian, Inc.  The licensee
 of this program is prohibited from giving any competitor of
 Gaussian, Inc. access to this program.  By using this program,
 the user acknowledges that Gaussian, Inc. is engaged in the
 business of creating and licensing software in the field of
 computational chemistry and represents and warrants to the
 licensee that it is not a competitor of Gaussian, Inc. and that
 it will not use this program in any manner prohibited above.
 ---------------------------------------------------------------
  

 Cite this work as:
 Gaussian 16, Revision C.01,
 M. J. Frisch, G. W. Trucks, H. B. Schlegel, G. E. Scuseria, 
 M. A. Robb, J. R. Cheeseman, G. Scalmani, V. Barone, 
 G. A. Petersson, H. Nakatsuji, X. Li, M. Caricato, A. V. Marenich, 
 J. Bloino, B. G. Janesko, R. Gomperts, B. Mennucci, H. P. Hratchian, 
 J. V. Ortiz, A. F. Izmaylov, J. L. Sonnenberg, D. Williams-Young, 
 F. Ding, F. Lipparini, F. Egidi, J. Goings, B. Peng, A. Petrone, 
 T. Henderson, D. Ranasinghe, V. G. Zakrzewski, J. Gao, N. Rega, 
 G. Zheng, W. Liang, M. Hada, M. Ehara, K. Toyota, R. Fukuda, 
 J. Hasegawa, M. Ishida, T. Nakajima, Y. Honda, O. Kitao, H. Nakai, 
 T. Vreven, K. Throssell, J. A. Montgomery, Jr., J. E. Peralta, 
 F. Ogliaro, M. J. Bearpark, J. J. Heyd, E. N. Brothers, K. N. Kudin, 
 V. N. Staroverov, T. A. Keith, R. Kobayashi, J. Normand, 
 K. Raghavachari, A. P. Rendell, J. C. Burant, S. S. Iyengar, 
 J. Tomasi, M. Cossi, J. M. Millam, M. Klene, C. Adamo, R. Cammi, 
 J. W. Ochterski, R. L. Martin, K. Morokuma, O. Farkas, 
 J. B. Foresman, and D. J. Fox, Gaussian, Inc., Wallingford CT, 2019.
 
 ******************************************
 Gaussian 16:  EM64W-G16RevC.01 30-May-2019
                29-Oct-2020 
 ******************************************
 %chk=H:\Msci\data\ZnSO4\ZnSO4_B_inner1_66_forceSymmetry.chk
 Default route: MaxDisk=10GB
 ----------------------------------------------------------------------
 #p opt=tight freq b3lyp/gen geom=connectivity gfprint integral=grid=ul
 trafine pseudo=read scf=(conver=9,maxcycle=40) symmetry=(on,follow)
 ----------------------------------------------------------------------
 1/7=10,18=20,19=15,26=4,38=1,57=2/1,3;
 2/9=110,12=2,15=-1,17=6,18=5,40=1/2;
 3/5=7,11=2,16=1,17=8,24=100,25=1,30=1,71=1,74=-5,75=-5/1,2,3;
 4//1;
 5/5=2,6=9,7=40,38=5/2;
 6/7=2,8=2,9=2,10=2,28=1/1;
 7/30=1/1,2,3,16;
 1/7=10,18=20,19=15,26=4/3(2);
 2/9=110,15=5/2;
 99//99;
 2/9=110,15=5/2;
 3/5=7,6=1,11=2,16=1,17=8,25=1,30=1,71=1,74=-5,75=-5,82=7/1,2,3;
 4/5=5,16=3,69=1/1;
 5/5=2,6=9,7=40,38=5/2;
 7/30=1/1,2,3,16;
 1/7=10,18=20,19=15,26=4/3(-5);
 2/9=110,15=5/2;
 6/7=2,8=2,9=2,10=2,19=2,28=1/1;
 99/9=1/99;
 Leave Link    1 at Thu Oct 29 22:57:46 2020, MaxMem=           0 cpu:               0.0 elap:               0.2
 (Enter C:\G16W\l101.exe)
 ------------------
 ZnSO41 optmisation
 ------------------
 Symbolic Z-matrix:
 Charge =  0 Multiplicity = 1
 Zn(Iso=66)            0.        0.        1.05578 
 O                     0.84346   1.45749   2.21228 
 H                     0.9719    2.23754   1.64157 
 H                     1.74003   1.09754   2.34953 
 O                    -2.16884   0.57103   0.75281 
 H                    -2.39126   1.46644   0.44719 
 H                    -2.08712   0.02923  -0.08206 
 O                    -0.84346  -1.45749   2.21228 
 H                    -1.74003  -1.09754   2.34953 
 H                    -0.9719   -2.23754   1.64157 
 O                     2.16884  -0.57103   0.75281 
 H                     2.08712  -0.02923  -0.08206 
 H                     2.39126  -1.46644   0.44719 
 S                     0.        0.       -1.99382 
 O                    -1.02477   0.74092  -2.73907 
 O                     1.02477  -0.74092  -2.73907 
 O                    -0.7231   -0.97332  -0.95333 
 O                     0.7231    0.97332  -0.95333 
 
 Add virtual bond connecting atoms O17        and H7         Dist= 3.60D+00.
 Add virtual bond connecting atoms O18        and H12        Dist= 3.60D+00.
 Add virtual bond connecting atoms O2         and Zn1        Dist= 3.86D+00.
 Add virtual bond connecting atoms O8         and Zn1        Dist= 3.86D+00.
 Add virtual bond connecting atoms O5         and Zn1        Dist= 4.28D+00.
 Add virtual bond connecting atoms O5         and H9         Dist= 4.44D+00.
 Add virtual bond connecting atoms H7         and Zn1        Dist= 4.49D+00.
 Add virtual bond connecting atoms O11        and Zn1        Dist= 4.28D+00.
 Add virtual bond connecting atoms O11        and H4         Dist= 4.44D+00.
 ITRead=  0  0  0  0  0  0  0  0  0  0  0  0  0  0  0  0  0  0
 MicOpt= -1 -1 -1 -1 -1 -1 -1 -1 -1 -1 -1 -1 -1 -1 -1 -1 -1 -1
 NAtoms=     18 NQM=       18 NQMF=       0 NMMI=      0 NMMIF=      0
                NMic=       0 NMicF=      0.
                    Isotopes and Nuclear Properties:
 (Nuclear quadrupole moments (NQMom) in fm**2, nuclear magnetic moments (NMagM)
  in nuclear magnetons)

  Atom         1           2           3           4           5           6           7           8           9          10
 IAtWgt=          66          16           1           1          16           1           1          16           1           1
 AtmWgt=  65.9260352  15.9949146   1.0078250   1.0078250  15.9949146   1.0078250   1.0078250  15.9949146   1.0078250   1.0078250
 NucSpn=           0           0           1           1           0           1           1           0           1           1
 AtZEff=   0.0000000   0.0000000   0.0000000   0.0000000   0.0000000   0.0000000   0.0000000   0.0000000   0.0000000   0.0000000
 NQMom=    0.0000000   0.0000000   0.0000000   0.0000000   0.0000000   0.0000000   0.0000000   0.0000000   0.0000000   0.0000000
 NMagM=    0.0000000   0.0000000   2.7928460   2.7928460   0.0000000   2.7928460   2.7928460   0.0000000   2.7928460   2.7928460
 AtZNuc=  30.0000000   8.0000000   1.0000000   1.0000000   8.0000000   1.0000000   1.0000000   8.0000000   1.0000000   1.0000000

  Atom        11          12          13          14          15          16          17          18
 IAtWgt=          16           1           1          32          16          16          16          16
 AtmWgt=  15.9949146   1.0078250   1.0078250  31.9720718  15.9949146  15.9949146  15.9949146  15.9949146
 NucSpn=           0           1           1           0           0           0           0           0
 AtZEff=   0.0000000   0.0000000   0.0000000   0.0000000   0.0000000   0.0000000   0.0000000   0.0000000
 NQMom=    0.0000000   0.0000000   0.0000000   0.0000000   0.0000000   0.0000000   0.0000000   0.0000000
 NMagM=    0.0000000   2.7928460   2.7928460   0.0000000   0.0000000   0.0000000   0.0000000   0.0000000
 AtZNuc=   8.0000000   1.0000000   1.0000000  16.0000000   8.0000000   8.0000000   8.0000000   8.0000000
 Leave Link  101 at Thu Oct 29 22:57:46 2020, MaxMem=   805306368 cpu:               0.0 elap:               0.3
 (Enter C:\G16W\l103.exe)

 GradGradGradGradGradGradGradGradGradGradGradGradGradGradGradGradGradGrad
 Berny optimization.
 Initialization pass.
                           ----------------------------
                           !    Initial Parameters    !
                           ! (Angstroms and Degrees)  !
 --------------------------                            --------------------------
 ! Name  Definition              Value          Derivative Info.                !
 --------------------------------------------------------------------------------
 ! R1    R(1,2)                  2.0428         estimate D2E/DX2                !
 ! R2    R(1,5)                  2.2631         estimate D2E/DX2                !
 ! R3    R(1,7)                  2.3773         estimate D2E/DX2                !
 ! R4    R(1,8)                  2.0428         estimate D2E/DX2                !
 ! R5    R(1,11)                 2.2631         estimate D2E/DX2                !
 ! R6    R(2,3)                  0.975          estimate D2E/DX2                !
 ! R7    R(2,4)                  0.9758         estimate D2E/DX2                !
 ! R8    R(4,11)                 2.3489         estimate D2E/DX2                !
 ! R9    R(5,6)                  0.9719         estimate D2E/DX2                !
 ! R10   R(5,7)                  0.9986         estimate D2E/DX2                !
 ! R11   R(5,9)                  2.3489         estimate D2E/DX2                !
 ! R12   R(7,17)                 1.9039         estimate D2E/DX2                !
 ! R13   R(8,9)                  0.9758         estimate D2E/DX2                !
 ! R14   R(8,10)                 0.975          estimate D2E/DX2                !
 ! R15   R(11,12)                0.9986         estimate D2E/DX2                !
 ! R16   R(11,13)                0.9719         estimate D2E/DX2                !
 ! R17   R(12,18)                1.9039         estimate D2E/DX2                !
 ! R18   R(14,15)                1.4678         estimate D2E/DX2                !
 ! R19   R(14,16)                1.4678         estimate D2E/DX2                !
 ! R20   R(14,17)                1.5978         estimate D2E/DX2                !
 ! R21   R(14,18)                1.5978         estimate D2E/DX2                !
 ! A1    A(2,1,5)              106.9447         estimate D2E/DX2                !
 ! A2    A(2,1,7)              128.6582         estimate D2E/DX2                !
 ! A3    A(2,1,8)              111.0393         estimate D2E/DX2                !
 ! A4    A(2,1,11)              81.9594         estimate D2E/DX2                !
 ! A5    A(5,1,8)               81.9594         estimate D2E/DX2                !
 ! A6    A(5,1,11)             164.6134         estimate D2E/DX2                !
 ! A7    A(7,1,8)               85.2532         estimate D2E/DX2                !
 ! A8    A(7,1,11)             141.296          estimate D2E/DX2                !
 ! A9    A(8,1,11)             106.9447         estimate D2E/DX2                !
 ! A10   A(1,2,3)              107.0869         estimate D2E/DX2                !
 ! A11   A(1,2,4)              101.2914         estimate D2E/DX2                !
 ! A12   A(3,2,4)              104.8564         estimate D2E/DX2                !
 ! A13   A(2,4,11)             109.5206         estimate D2E/DX2                !
 ! A14   A(1,5,6)              119.5953         estimate D2E/DX2                !
 ! A15   A(1,5,9)               63.5648         estimate D2E/DX2                !
 ! A16   A(6,5,7)              104.8132         estimate D2E/DX2                !
 ! A17   A(6,5,9)              155.4999         estimate D2E/DX2                !
 ! A18   A(7,5,9)               99.6693         estimate D2E/DX2                !
 ! A19   A(1,7,17)              65.3906         estimate D2E/DX2                !
 ! A20   A(5,7,17)             136.6282         estimate D2E/DX2                !
 ! A21   A(1,8,9)              101.2914         estimate D2E/DX2                !
 ! A22   A(1,8,10)             107.0869         estimate D2E/DX2                !
 ! A23   A(9,8,10)             104.8564         estimate D2E/DX2                !
 ! A24   A(5,9,8)              109.5206         estimate D2E/DX2                !
 ! A25   A(1,11,4)              63.5648         estimate D2E/DX2                !
 ! A26   A(1,11,12)             84.0653         estimate D2E/DX2                !
 ! A27   A(1,11,13)            119.5953         estimate D2E/DX2                !
 ! A28   A(4,11,12)             99.6693         estimate D2E/DX2                !
 ! A29   A(4,11,13)            155.4999         estimate D2E/DX2                !
 ! A30   A(12,11,13)           104.8132         estimate D2E/DX2                !
 ! A31   A(11,12,18)           136.6282         estimate D2E/DX2                !
 ! A32   A(15,14,16)           118.9745         estimate D2E/DX2                !
 ! A33   A(15,14,17)           108.7943         estimate D2E/DX2                !
 ! A34   A(15,14,18)           109.8225         estimate D2E/DX2                !
 ! A35   A(16,14,17)           109.8225         estimate D2E/DX2                !
 ! A36   A(16,14,18)           108.7943         estimate D2E/DX2                !
 ! A37   A(17,14,18)            98.7339         estimate D2E/DX2                !
 ! A38   A(7,17,14)            107.5459         estimate D2E/DX2                !
 ! A39   A(12,18,14)           107.5459         estimate D2E/DX2                !
 ! D1    D(5,1,2,3)            -74.8083         estimate D2E/DX2                !
 ! D2    D(5,1,2,4)            175.6248         estimate D2E/DX2                !
 ! D3    D(7,1,2,3)            -61.3504         estimate D2E/DX2                !
 ! D4    D(7,1,2,4)           -170.9172         estimate D2E/DX2                !
 ! D5    D(8,1,2,3)           -162.5462         estimate D2E/DX2                !
 ! D6    D(8,1,2,4)             87.887          estimate D2E/DX2                !
 ! D7    D(11,1,2,3)            92.3227         estimate D2E/DX2                !
 ! D8    D(11,1,2,4)           -17.2442         estimate D2E/DX2                !
 ! D9    D(2,1,5,6)             50.532          estimate D2E/DX2                !
 ! D10   D(2,1,5,9)           -101.8815         estimate D2E/DX2                !
 ! D11   D(8,1,5,6)            160.1647         estimate D2E/DX2                !
 ! D12   D(8,1,5,9)              7.7512         estimate D2E/DX2                !
 ! D13   D(11,1,5,6)           -73.25           estimate D2E/DX2                !
 ! D14   D(11,1,5,9)           134.3366         estimate D2E/DX2                !
 ! D15   D(2,1,7,17)           147.5491         estimate D2E/DX2                !
 ! D16   D(8,1,7,17)           -99.1911         estimate D2E/DX2                !
 ! D17   D(11,1,7,17)           12.1592         estimate D2E/DX2                !
 ! D18   D(2,1,8,9)             87.887          estimate D2E/DX2                !
 ! D19   D(2,1,8,10)          -162.5462         estimate D2E/DX2                !
 ! D20   D(5,1,8,9)            -17.2442         estimate D2E/DX2                !
 ! D21   D(5,1,8,10)            92.3227         estimate D2E/DX2                !
 ! D22   D(7,1,8,9)            -41.8791         estimate D2E/DX2                !
 ! D23   D(7,1,8,10)            67.6878         estimate D2E/DX2                !
 ! D24   D(11,1,8,9)           175.6248         estimate D2E/DX2                !
 ! D25   D(11,1,8,10)          -74.8083         estimate D2E/DX2                !
 ! D26   D(2,1,11,4)             7.7512         estimate D2E/DX2                !
 ! D27   D(2,1,11,12)          -96.151          estimate D2E/DX2                !
 ! D28   D(2,1,11,13)          160.1647         estimate D2E/DX2                !
 ! D29   D(5,1,11,4)           134.3366         estimate D2E/DX2                !
 ! D30   D(5,1,11,12)           30.4343         estimate D2E/DX2                !
 ! D31   D(5,1,11,13)          -73.25           estimate D2E/DX2                !
 ! D32   D(7,1,11,4)           154.12           estimate D2E/DX2                !
 ! D33   D(7,1,11,12)           50.2178         estimate D2E/DX2                !
 ! D34   D(7,1,11,13)          -53.4665         estimate D2E/DX2                !
 ! D35   D(8,1,11,4)          -101.8815         estimate D2E/DX2                !
 ! D36   D(8,1,11,12)          154.2163         estimate D2E/DX2                !
 ! D37   D(8,1,11,13)           50.532          estimate D2E/DX2                !
 ! D38   D(1,2,4,11)            17.4608         estimate D2E/DX2                !
 ! D39   D(3,2,4,11)           -93.8205         estimate D2E/DX2                !
 ! D40   D(2,4,11,1)           -17.2547         estimate D2E/DX2                !
 ! D41   D(2,4,11,12)           61.1006         estimate D2E/DX2                !
 ! D42   D(2,4,11,13)         -121.0854         estimate D2E/DX2                !
 ! D43   D(6,5,7,17)           118.7502         estimate D2E/DX2                !
 ! D44   D(9,5,7,17)           -62.1873         estimate D2E/DX2                !
 ! D45   D(1,5,9,8)            -17.2547         estimate D2E/DX2                !
 ! D46   D(6,5,9,8)           -121.0854         estimate D2E/DX2                !
 ! D47   D(7,5,9,8)             61.1006         estimate D2E/DX2                !
 ! D48   D(1,7,17,14)          -93.1337         estimate D2E/DX2                !
 ! D49   D(5,7,17,14)          -92.7848         estimate D2E/DX2                !
 ! D50   D(1,8,9,5)             17.4608         estimate D2E/DX2                !
 ! D51   D(10,8,9,5)           -93.8205         estimate D2E/DX2                !
 ! D52   D(1,11,12,18)          -0.335          estimate D2E/DX2                !
 ! D53   D(4,11,12,18)         -62.1873         estimate D2E/DX2                !
 ! D54   D(13,11,12,18)        118.7502         estimate D2E/DX2                !
 ! D55   D(11,12,18,14)        -92.7848         estimate D2E/DX2                !
 ! D56   D(15,14,17,7)         -45.6693         estimate D2E/DX2                !
 ! D57   D(16,14,17,7)        -177.475          estimate D2E/DX2                !
 ! D58   D(18,14,17,7)          68.8306         estimate D2E/DX2                !
 ! D59   D(15,14,18,12)       -177.475          estimate D2E/DX2                !
 ! D60   D(16,14,18,12)        -45.6693         estimate D2E/DX2                !
 ! D61   D(17,14,18,12)         68.8306         estimate D2E/DX2                !
 --------------------------------------------------------------------------------
 Trust Radius=3.00D-01 FncErr=1.00D-07 GrdErr=1.00D-06 EigMax=2.50D+02 EigMin=1.00D-04
 Number of steps in this run=    108 maximum allowed number of steps=    108.
 GradGradGradGradGradGradGradGradGradGradGradGradGradGradGradGradGradGrad

 Leave Link  103 at Thu Oct 29 22:57:47 2020, MaxMem=   805306368 cpu:               0.0 elap:               0.1
 (Enter C:\G16W\l202.exe)
                          Input orientation:                          
 ---------------------------------------------------------------------
 Center     Atomic      Atomic             Coordinates (Angstroms)
 Number     Number       Type             X           Y           Z
 ---------------------------------------------------------------------
      1         30           0        0.000000    0.000000    1.055777
      2          8           0        0.843457    1.457492    2.212275
      3          1           0        0.971903    2.237544    1.641573
      4          1           0        1.740027    1.097536    2.349527
      5          8           0       -2.168836    0.571033    0.752811
      6          1           0       -2.391261    1.466436    0.447185
      7          1           0       -2.087123    0.029232   -0.082062
      8          8           0       -0.843457   -1.457492    2.212275
      9          1           0       -1.740027   -1.097536    2.349527
     10          1           0       -0.971903   -2.237544    1.641573
     11          8           0        2.168836   -0.571033    0.752811
     12          1           0        2.087123   -0.029232   -0.082062
     13          1           0        2.391261   -1.466436    0.447185
     14         16           0        0.000000    0.000000   -1.993816
     15          8           0       -1.024765    0.740918   -2.739075
     16          8           0        1.024765   -0.740918   -2.739075
     17          8           0       -0.723104   -0.973325   -0.953334
     18          8           0        0.723104    0.973325   -0.953334
 ---------------------------------------------------------------------
                    Distance matrix (angstroms):
                    1          2          3          4          5
     1  Zn   0.000000
     2  O    2.042839   0.000000
     3  H    2.508856   0.975029   0.000000
     4  H    2.430240   0.975830   1.546231   0.000000
     5  O    2.263121   3.462622   3.664888   4.255105   0.000000
     6  H    2.870357   3.684973   3.651307   4.563171   0.971919
     7  H    2.377312   3.986502   4.147915   4.658430   0.998618
     8  O    2.042839   3.367908   4.156263   3.636123   2.828706
     9  H    2.430240   3.636123   4.356434   4.114500   2.348936
    10  H    2.508856   4.156263   4.879016   4.356434   3.179725
    11  O    2.263121   2.828706   3.179725   2.348936   4.485501
    12  H    2.377312   3.003504   3.058252   2.702352   4.378415
    13  H    2.870357   3.749746   4.142536   3.258368   5.003916
    14  S    3.049592   4.530662   4.378042   4.805924   3.545968
    15  O    4.000000   5.340374   5.041493   5.802165   3.678454
    16  O    4.000000   5.420493   5.297556   5.457598   4.910557
    17  O    2.346650   4.287664   4.462765   4.611330   2.717740
    18  O    2.346650   3.204681   2.897187   3.458099   3.381729
                    6          7          8          9         10
     6  H    0.000000
     7  H    1.561460   0.000000
     8  O    3.749746   3.003504   0.000000
     9  H    3.258368   2.702352   0.975830   0.000000
    10  H    4.142536   3.058252   0.975029   1.546231   0.000000
    11  O    5.003916   4.378415   3.462622   4.255105   3.664888
    12  H    4.751110   4.174654   3.986502   4.658430   4.147915
    13  H    5.610192   4.751110   3.684973   4.563171   3.651307
    14  S    3.718474   2.830501   4.530662   4.805924   4.378042
    15  O    3.542025   2.948697   5.420493   5.457598   5.297556
    16  O    5.166614   4.163735   5.340374   5.802165   5.041493
    17  O    3.270570   1.903886   3.204681   3.458099   2.897187
    18  O    3.450201   3.089951   4.287664   4.611330   4.462765
                   11         12         13         14         15
    11  O    0.000000
    12  H    0.998618   0.000000
    13  H    0.971919   1.561460   0.000000
    14  S    3.545968   2.830501   3.718474   0.000000
    15  O    4.910557   4.163735   5.166614   1.467826   0.000000
    16  O    3.678454   2.948697   3.542025   1.467826   2.529112
    17  O    3.381729   3.089951   3.450201   1.597762   2.493691
    18  O    2.717740   1.903886   3.270570   1.597762   2.509568
                   16         17         18
    16  O    0.000000
    17  O    2.509568   0.000000
    18  O    2.493691   2.425070   0.000000
 Stoichiometry    H8O8SZn
 Framework group  C2[C2(SZn),X(H8O8)]
 Deg. of freedom    24
 Full point group                 C2      NOp   2
 Largest Abelian subgroup         C2      NOp   2
 Largest concise Abelian subgroup C2      NOp   2
                         Standard orientation:                         
 ---------------------------------------------------------------------
 Center     Atomic      Atomic             Coordinates (Angstroms)
 Number     Number       Type             X           Y           Z
 ---------------------------------------------------------------------
      1         30           0        0.000000    0.000000    1.082492
      2          8           0        1.624212   -0.444563    2.238991
      3          1           0        2.411260   -0.370165    1.668289
      4          1           0        1.504398   -1.403234    2.376243
      5          8           0        0.000000    2.242750    0.779527
      6          1           0        0.809261    2.685826    0.473901
      7          1           0       -0.503139    2.025780   -0.055346
      8          8           0       -1.624212    0.444563    2.238991
      9          1           0       -1.504398    1.403234    2.376243
     10          1           0       -2.411260    0.370165    1.668289
     11          8           0        0.000000   -2.242750    0.779527
     12          1           0        0.503139   -2.025780   -0.055346
     13          1           0       -0.809261   -2.685826    0.473901
     14         16           0        0.000000    0.000000   -1.967100
     15          8           0        0.455581    1.179639   -2.712359
     16          8           0       -0.455581   -1.179639   -2.712359
     17          8           0       -1.125358    0.451452   -0.926618
     18          8           0        1.125358   -0.451452   -0.926618
 ---------------------------------------------------------------------
 Rotational constants (GHZ):           1.2795164           0.6284933           0.5536040
 Leave Link  202 at Thu Oct 29 22:57:48 2020, MaxMem=   805306368 cpu:               1.0 elap:               0.1
 (Enter C:\G16W\l301.exe)
 General basis read from cards:  (5D, 7F)
 Centers:       3      4      6      7      9     10     12     13      2      5
 Centers:       8     11     15     16     17     18     14
 6-31g(d)
 ****
 Centers:       1
 LanL2DZ
 ****
 ======================================================================================================
                                       Pseudopotential Parameters
 ======================================================================================================
  Center     Atomic      Valence      Angular      Power
  Number     Number     Electrons     Momentum     of R      Exponent        Coefficient   SO-Coeffient
 ======================================================================================================
    1         30           12
                                      F and up 
                                                     1      386.7379660      -18.00000000    0.00000000
                                                     2       72.8587359     -124.35274030    0.00000000
                                                     2       15.9066170      -30.66018220    0.00000000
                                                     2        4.3502340      -10.63589890    0.00000000
                                                     2        1.2842199       -0.76836230    0.00000000
                                      S - F
                                                     0       19.0867858        3.00000000    0.00000000
                                                     1        5.0231080       22.52342250    0.00000000
                                                     2        1.2701744       48.44659420    0.00000000
                                                     2        1.0671287      -44.55601190    0.00000000
                                                     2        0.9264190       12.99839580    0.00000000
                                      P - F
                                                     0       43.4927750        5.00000000    0.00000000
                                                     1       20.8692669       20.74355890    0.00000000
                                                     2       21.7118378       90.30271580    0.00000000
                                                     2        6.3616915       74.66103160    0.00000000
                                                     2        1.2291195        9.88944240    0.00000000
                                      D - F
                                                     2       13.5851800       -4.84903590    0.00000000
                                                     2        9.8373050        3.69133790    0.00000000
                                                     2        0.8373113       -0.50373190    0.00000000
    2          8
                                   No pseudopotential on this center.
    3          1
                                   No pseudopotential on this center.
    4          1
                                   No pseudopotential on this center.
    5          8
                                   No pseudopotential on this center.
    6          1
                                   No pseudopotential on this center.
    7          1
                                   No pseudopotential on this center.
    8          8
                                   No pseudopotential on this center.
    9          1
                                   No pseudopotential on this center.
   10          1
                                   No pseudopotential on this center.
   11          8
                                   No pseudopotential on this center.
   12          1
                                   No pseudopotential on this center.
   13          1
                                   No pseudopotential on this center.
   14         16
                                   No pseudopotential on this center.
   15          8
                                   No pseudopotential on this center.
   16          8
                                   No pseudopotential on this center.
   17          8
                                   No pseudopotential on this center.
   18          8
                                   No pseudopotential on this center.
 ======================================================================================================
 Ernie: Thresh=  0.10000D-02 Tol=  0.10000D-05 Strict=F.
 AO basis set (Overlap normalization):
 Atom Zn1      Shell     1 S   2     bf    1 -     1          0.000000000000          0.000000000000          2.045614308852
      0.7997000000D+00 -0.6486111877D+00
      0.1752000000D+00  0.1313829075D+01
 Atom Zn1      Shell     2 S   1     bf    2 -     2          0.000000000000          0.000000000000          2.045614308852
      0.5560000000D-01  0.1000000000D+01
 Atom Zn1      Shell     3 P   1     bf    3 -     5          0.000000000000          0.000000000000          2.045614308852
      0.1202000000D+00  0.1000000000D+01
 Atom Zn1      Shell     4 P   1     bf    6 -     8          0.000000000000          0.000000000000          2.045614308852
      0.3510000000D-01  0.1000000000D+01
 Atom Zn1      Shell     5 D   4     bf    9 -    13          0.000000000000          0.000000000000          2.045614308852
      0.6885000000D+02  0.2585320117D-01
      0.1832000000D+02  0.1651195075D+00
      0.5922000000D+01  0.4468212202D+00
      0.1927000000D+01  0.5831080264D+00
 Atom Zn1      Shell     6 D   1     bf   14 -    18          0.000000000000          0.000000000000          2.045614308852
      0.5528000000D+00  0.1000000000D+01
 Atom O2       Shell     7 S   6     bf   19 -    19          3.069315944428         -0.840102359711          4.231079474832
      0.5484671660D+04  0.1831074430D-02
      0.8252349460D+03  0.1395017220D-01
      0.1880469580D+03  0.6844507810D-01
      0.5296450000D+02  0.2327143360D+00
      0.1689757040D+02  0.4701928980D+00
      0.5799635340D+01  0.3585208530D+00
 Atom O2       Shell     8 SP   3    bf   20 -    23          3.069315944428         -0.840102359711          4.231079474832
      0.1553961625D+02 -0.1107775495D+00  0.7087426823D-01
      0.3599933586D+01 -0.1480262627D+00  0.3397528391D+00
      0.1013761750D+01  0.1130767015D+01  0.7271585773D+00
 Atom O2       Shell     9 SP   1    bf   24 -    27          3.069315944428         -0.840102359711          4.231079474832
      0.2700058226D+00  0.1000000000D+01  0.1000000000D+01
 Atom O2       Shell    10 D   1     bf   28 -    32          3.069315944428         -0.840102359711          4.231079474832
      0.8000000000D+00  0.1000000000D+01
 Atom H3       Shell    11 S   3     bf   33 -    33          4.556621743979         -0.699510413392          3.152608845228
      0.1873113696D+02  0.3349460434D-01
      0.2825394365D+01  0.2347269535D+00
      0.6401216923D+00  0.8137573261D+00
 Atom H3       Shell    12 S   1     bf   34 -    34          4.556621743979         -0.699510413392          3.152608845228
      0.1612777588D+00  0.1000000000D+01
 Atom H4       Shell    13 S   3     bf   35 -    35          2.842899559605         -2.651728037198          4.490447883624
      0.1873113696D+02  0.3349460434D-01
      0.2825394365D+01  0.2347269535D+00
      0.6401216923D+00  0.8137573261D+00
 Atom H4       Shell    14 S   1     bf   36 -    36          2.842899559605         -2.651728037198          4.490447883624
      0.1612777588D+00  0.1000000000D+01
 Atom O5       Shell    15 S   6     bf   37 -    37          0.000000000000          4.238184033435          1.473092180977
      0.5484671660D+04  0.1831074430D-02
      0.8252349460D+03  0.1395017220D-01
      0.1880469580D+03  0.6844507810D-01
      0.5296450000D+02  0.2327143360D+00
      0.1689757040D+02  0.4701928980D+00
      0.5799635340D+01  0.3585208530D+00
 Atom O5       Shell    16 SP   3    bf   38 -    41          0.000000000000          4.238184033435          1.473092180977
      0.1553961625D+02 -0.1107775495D+00  0.7087426823D-01
      0.3599933586D+01 -0.1480262627D+00  0.3397528391D+00
      0.1013761750D+01  0.1130767015D+01  0.7271585773D+00
 Atom O5       Shell    17 SP   1    bf   42 -    45          0.000000000000          4.238184033435          1.473092180977
      0.2700058226D+00  0.1000000000D+01  0.1000000000D+01
 Atom O5       Shell    18 D   1     bf   46 -    50          0.000000000000          4.238184033435          1.473092180977
      0.8000000000D+00  0.1000000000D+01
 Atom H6       Shell    19 S   3     bf   51 -    51          1.529281684042          5.075475448526          0.895542743885
      0.1873113696D+02  0.3349460434D-01
      0.2825394365D+01  0.2347269535D+00
      0.6401216923D+00  0.8137573261D+00
 Atom H6       Shell    20 S   1     bf   52 -    52          1.529281684042          5.075475448526          0.895542743885
      0.1612777588D+00  0.1000000000D+01
 Atom H7       Shell    21 S   3     bf   53 -    53         -0.950794868268          3.828170093476         -0.104589156513
      0.1873113696D+02  0.3349460434D-01
      0.2825394365D+01  0.2347269535D+00
      0.6401216923D+00  0.8137573261D+00
 Atom H7       Shell    22 S   1     bf   54 -    54         -0.950794868268          3.828170093476         -0.104589156513
      0.1612777588D+00  0.1000000000D+01
 Atom O8       Shell    23 S   6     bf   55 -    55         -3.069315944428          0.840102359711          4.231079474832
      0.5484671660D+04  0.1831074430D-02
      0.8252349460D+03  0.1395017220D-01
      0.1880469580D+03  0.6844507810D-01
      0.5296450000D+02  0.2327143360D+00
      0.1689757040D+02  0.4701928980D+00
      0.5799635340D+01  0.3585208530D+00
 Atom O8       Shell    24 SP   3    bf   56 -    59         -3.069315944428          0.840102359711          4.231079474832
      0.1553961625D+02 -0.1107775495D+00  0.7087426823D-01
      0.3599933586D+01 -0.1480262627D+00  0.3397528391D+00
      0.1013761750D+01  0.1130767015D+01  0.7271585773D+00
 Atom O8       Shell    25 SP   1    bf   60 -    63         -3.069315944428          0.840102359711          4.231079474832
      0.2700058226D+00  0.1000000000D+01  0.1000000000D+01
 Atom O8       Shell    26 D   1     bf   64 -    68         -3.069315944428          0.840102359711          4.231079474832
      0.8000000000D+00  0.1000000000D+01
 Atom H9       Shell    27 S   3     bf   69 -    69         -2.842899559605          2.651728037198          4.490447883624
      0.1873113696D+02  0.3349460434D-01
      0.2825394365D+01  0.2347269535D+00
      0.6401216923D+00  0.8137573261D+00
 Atom H9       Shell    28 S   1     bf   70 -    70         -2.842899559605          2.651728037198          4.490447883624
      0.1612777588D+00  0.1000000000D+01
 Atom H10      Shell    29 S   3     bf   71 -    71         -4.556621743979          0.699510413392          3.152608845228
      0.1873113696D+02  0.3349460434D-01
      0.2825394365D+01  0.2347269535D+00
      0.6401216923D+00  0.8137573261D+00
 Atom H10      Shell    30 S   1     bf   72 -    72         -4.556621743979          0.699510413392          3.152608845228
      0.1612777588D+00  0.1000000000D+01
 Atom O11      Shell    31 S   6     bf   73 -    73          0.000000000000         -4.238184033435          1.473092180977
      0.5484671660D+04  0.1831074430D-02
      0.8252349460D+03  0.1395017220D-01
      0.1880469580D+03  0.6844507810D-01
      0.5296450000D+02  0.2327143360D+00
      0.1689757040D+02  0.4701928980D+00
      0.5799635340D+01  0.3585208530D+00
 Atom O11      Shell    32 SP   3    bf   74 -    77          0.000000000000         -4.238184033435          1.473092180977
      0.1553961625D+02 -0.1107775495D+00  0.7087426823D-01
      0.3599933586D+01 -0.1480262627D+00  0.3397528391D+00
      0.1013761750D+01  0.1130767015D+01  0.7271585773D+00
 Atom O11      Shell    33 SP   1    bf   78 -    81          0.000000000000         -4.238184033435          1.473092180977
      0.2700058226D+00  0.1000000000D+01  0.1000000000D+01
 Atom O11      Shell    34 D   1     bf   82 -    86          0.000000000000         -4.238184033435          1.473092180977
      0.8000000000D+00  0.1000000000D+01
 Atom H12      Shell    35 S   3     bf   87 -    87          0.950794868268         -3.828170093476         -0.104589156513
      0.1873113696D+02  0.3349460434D-01
      0.2825394365D+01  0.2347269535D+00
      0.6401216923D+00  0.8137573261D+00
 Atom H12      Shell    36 S   1     bf   88 -    88          0.950794868268         -3.828170093476         -0.104589156513
      0.1612777588D+00  0.1000000000D+01
 Atom H13      Shell    37 S   3     bf   89 -    89         -1.529281684042         -5.075475448526          0.895542743885
      0.1873113696D+02  0.3349460434D-01
      0.2825394365D+01  0.2347269535D+00
      0.6401216923D+00  0.8137573261D+00
 Atom H13      Shell    38 S   1     bf   90 -    90         -1.529281684042         -5.075475448526          0.895542743885
      0.1612777588D+00  0.1000000000D+01
 Atom S14      Shell    39 S   6     bf   91 -    91          0.000000000000          0.000000000000         -3.717280137600
      0.2191710000D+05  0.1869240849D-02
      0.3301490000D+04  0.1423030646D-01
      0.7541460000D+03  0.6969623166D-01
      0.2127110000D+03  0.2384871083D+00
      0.6798960000D+02  0.4833072195D+00
      0.2305150000D+02  0.3380741536D+00
 Atom S14      Shell    40 SP   6    bf   92 -    95          0.000000000000          0.000000000000         -3.717280137600
      0.4237350000D+03 -0.2376770499D-02  0.4061009982D-02
      0.1007100000D+03 -0.3169300665D-01  0.3068129986D-01
      0.3215990000D+02 -0.1133170238D+00  0.1304519994D+00
      0.1180790000D+02  0.5609001177D-01  0.3272049985D+00
      0.4631100000D+01  0.5922551243D+00  0.4528509980D+00
      0.1870250000D+01  0.4550060955D+00  0.2560419989D+00
 Atom S14      Shell    41 SP   3    bf   96 -    99          0.000000000000          0.000000000000         -3.717280137600
      0.2615840000D+01 -0.2503731142D+00 -0.1451048955D-01
      0.9221670000D+00  0.6695676310D-01  0.3102627765D+00
      0.3412870000D+00  0.1054506269D+01  0.7544824565D+00
 Atom S14      Shell    42 SP   1    bf  100 -   103          0.000000000000          0.000000000000         -3.717280137600
      0.1171670000D+00  0.1000000000D+01  0.1000000000D+01
 Atom S14      Shell    43 D   1     bf  104 -   108          0.000000000000          0.000000000000         -3.717280137600
      0.6500000000D+00  0.1000000000D+01
 Atom O15      Shell    44 S   6     bf  109 -   109          0.860923091599          2.229194932550         -5.125615617573
      0.5484671660D+04  0.1831074430D-02
      0.8252349460D+03  0.1395017220D-01
      0.1880469580D+03  0.6844507810D-01
      0.5296450000D+02  0.2327143360D+00
      0.1689757040D+02  0.4701928980D+00
      0.5799635340D+01  0.3585208530D+00
 Atom O15      Shell    45 SP   3    bf  110 -   113          0.860923091599          2.229194932550         -5.125615617573
      0.1553961625D+02 -0.1107775495D+00  0.7087426823D-01
      0.3599933586D+01 -0.1480262627D+00  0.3397528391D+00
      0.1013761750D+01  0.1130767015D+01  0.7271585773D+00
 Atom O15      Shell    46 SP   1    bf  114 -   117          0.860923091599          2.229194932550         -5.125615617573
      0.2700058226D+00  0.1000000000D+01  0.1000000000D+01
 Atom O15      Shell    47 D   1     bf  118 -   122          0.860923091599          2.229194932550         -5.125615617573
      0.8000000000D+00  0.1000000000D+01
 Atom O16      Shell    48 S   6     bf  123 -   123         -0.860923091599         -2.229194932550         -5.125615617573
      0.5484671660D+04  0.1831074430D-02
      0.8252349460D+03  0.1395017220D-01
      0.1880469580D+03  0.6844507810D-01
      0.5296450000D+02  0.2327143360D+00
      0.1689757040D+02  0.4701928980D+00
      0.5799635340D+01  0.3585208530D+00
 Atom O16      Shell    49 SP   3    bf  124 -   127         -0.860923091599         -2.229194932550         -5.125615617573
      0.1553961625D+02 -0.1107775495D+00  0.7087426823D-01
      0.3599933586D+01 -0.1480262627D+00  0.3397528391D+00
      0.1013761750D+01  0.1130767015D+01  0.7271585773D+00
 Atom O16      Shell    50 SP   1    bf  128 -   131         -0.860923091599         -2.229194932550         -5.125615617573
      0.2700058226D+00  0.1000000000D+01  0.1000000000D+01
 Atom O16      Shell    51 D   1     bf  132 -   136         -0.860923091599         -2.229194932550         -5.125615617573
      0.8000000000D+00  0.1000000000D+01
 Atom O17      Shell    52 S   6     bf  137 -   137         -2.126619140008          0.853121206975         -1.751054027350
      0.5484671660D+04  0.1831074430D-02
      0.8252349460D+03  0.1395017220D-01
      0.1880469580D+03  0.6844507810D-01
      0.5296450000D+02  0.2327143360D+00
      0.1689757040D+02  0.4701928980D+00
      0.5799635340D+01  0.3585208530D+00
 Atom O17      Shell    53 SP   3    bf  138 -   141         -2.126619140008          0.853121206975         -1.751054027350
      0.1553961625D+02 -0.1107775495D+00  0.7087426823D-01
      0.3599933586D+01 -0.1480262627D+00  0.3397528391D+00
      0.1013761750D+01  0.1130767015D+01  0.7271585773D+00
 Atom O17      Shell    54 SP   1    bf  142 -   145         -2.126619140008          0.853121206975         -1.751054027350
      0.2700058226D+00  0.1000000000D+01  0.1000000000D+01
 Atom O17      Shell    55 D   1     bf  146 -   150         -2.126619140008          0.853121206975         -1.751054027350
      0.8000000000D+00  0.1000000000D+01
 Atom O18      Shell    56 S   6     bf  151 -   151          2.126619140008         -0.853121206975         -1.751054027350
      0.5484671660D+04  0.1831074430D-02
      0.8252349460D+03  0.1395017220D-01
      0.1880469580D+03  0.6844507810D-01
      0.5296450000D+02  0.2327143360D+00
      0.1689757040D+02  0.4701928980D+00
      0.5799635340D+01  0.3585208530D+00
 Atom O18      Shell    57 SP   3    bf  152 -   155          2.126619140008         -0.853121206975         -1.751054027350
      0.1553961625D+02 -0.1107775495D+00  0.7087426823D-01
      0.3599933586D+01 -0.1480262627D+00  0.3397528391D+00
      0.1013761750D+01  0.1130767015D+01  0.7271585773D+00
 Atom O18      Shell    58 SP   1    bf  156 -   159          2.126619140008         -0.853121206975         -1.751054027350
      0.2700058226D+00  0.1000000000D+01  0.1000000000D+01
 Atom O18      Shell    59 D   1     bf  160 -   164          2.126619140008         -0.853121206975         -1.751054027350
      0.8000000000D+00  0.1000000000D+01
 There are    91 symmetry adapted cartesian basis functions of A   symmetry.
 There are    84 symmetry adapted cartesian basis functions of B   symmetry.
 There are    84 symmetry adapted basis functions of A   symmetry.
 There are    80 symmetry adapted basis functions of B   symmetry.
   164 basis functions,   347 primitive gaussians,   175 cartesian basis functions
    50 alpha electrons       50 beta electrons
       nuclear repulsion energy       865.4797158504 Hartrees.
 IExCor=  402 DFT=T Ex+Corr=B3LYP ExCW=0 ScaHFX=  0.200000
 ScaDFX=  0.800000  0.720000  1.000000  0.810000 ScalE2=  1.000000  1.000000
 IRadAn=      5 IRanWt=     -1 IRanGd=            0 ICorTp=0 IEmpDi=  4
 NAtoms=   18 NActive=   18 NUniq=   10 SFac= 3.24D+00 NAtFMM=   60 NAOKFM=F Big=F
 Integral buffers will be    131072 words long.
 Raffenetti 2 integral format.
 Two-electron integral symmetry is turned on.
 Leave Link  301 at Thu Oct 29 22:57:48 2020, MaxMem=   805306368 cpu:               0.0 elap:               0.1
 (Enter C:\G16W\l302.exe)
 NPDir=0 NMtPBC=     1 NCelOv=     1 NCel=       1 NClECP=     1 NCelD=      1
         NCelK=      1 NCelE2=     1 NClLst=     1 CellRange=     0.0.
 One-electron integrals computed using PRISM.
 One-electron integral symmetry used in STVInt
   2 Symmetry operations used in ECPInt.
 ECPInt:  NShTT=    1770 NPrTT=   11086 LenC2=    1701 LenP2D=    6842.
 LDataN:  DoStor=T MaxTD1= 5 Len=  102
 NBasis=   164 RedAO= T EigKep=  1.01D-02  NBF=    84    80
 NBsUse=   164 1.00D-06 EigRej= -1.00D+00 NBFU=    84    80
 Precomputing XC quadrature grid using
 IXCGrd= 4 IRadAn=           5 IRanWt=          -1 IRanGd=           0 AccXCQ= 0.00D+00.
 Generated NRdTot=       0 NPtTot=           0 NUsed=           0 NTot=          32
 NSgBfM=   174   174   174   174   174 MxSgAt=    18 MxSgA2=    18.
 Leave Link  302 at Thu Oct 29 22:57:51 2020, MaxMem=   805306368 cpu:               2.0 elap:               2.6
 (Enter C:\G16W\l303.exe)
 DipDrv:  MaxL=1.
 Leave Link  303 at Thu Oct 29 22:57:52 2020, MaxMem=   805306368 cpu:               0.0 elap:               0.2
 (Enter C:\G16W\l401.exe)
 ExpMin= 3.51D-02 ExpMax= 2.19D+04 ExpMxC= 3.30D+03 IAcc=3 IRadAn=         5 AccDes= 0.00D+00
 Harris functional with IExCor=  402 and IRadAn=       5 diagonalized for initial guess.
 HarFok:  IExCor=  402 AccDes= 0.00D+00 IRadAn=         5 IDoV= 1 UseB2=F ITyADJ=14
 ICtDFT=  3500011 ScaDFX=  1.000000  1.000000  1.000000  1.000000
 FoFCou: FMM=F IPFlag=           0 FMFlag=      100000 FMFlg1=           0
         NFxFlg=           0 DoJE=T BraDBF=F KetDBF=T FulRan=T
         wScrn=  0.000000 ICntrl=       500 IOpCl=  0 I1Cent=   200000004 NGrid=           0
         NMat0=    1 NMatS0=      1 NMatT0=    0 NMatD0=    1 NMtDS0=    0 NMtDT0=    0
 Petite list used in FoFCou.
 Harris En= -1070.94370810060    
 JPrj=0 DoOrth=F DoCkMO=F.
 Initial guess orbital symmetries:
       Occupied  (A) (B) (A) (B) (A) (A) (B) (A) (B) (A) (B) (A)
                 (B) (A) (A) (B) (A) (B) (B) (A) (B) (B) (A) (A)
                 (A) (B) (A) (B) (A) (B) (A) (A) (B) (A) (B) (B)
                 (A) (B) (A) (B) (B) (A) (A) (A) (B) (A) (B) (B)
                 (A) (B)
       Virtual   (A) (B) (B) (A) (A) (A) (B) (A) (B) (A) (B) (A)
                 (A) (B) (B) (B) (B) (A) (B) (A) (B) (B) (A) (A)
                 (A) (A) (A) (B) (A) (B) (B) (A) (B) (A) (A) (B)
                 (A) (B) (A) (B) (A) (B) (A) (B) (B) (A) (B) (B)
                 (A) (A) (B) (A) (B) (B) (A) (B) (A) (B) (A) (B)
                 (A) (B) (A) (B) (A) (B) (A) (B) (A) (B) (B) (A)
                 (B) (A) (A) (B) (B) (A) (B) (A) (B) (A) (B) (A)
                 (B) (B) (A) (A) (B) (A) (A) (B) (A) (B) (A) (B)
                 (A) (B) (A) (B) (A) (B) (A) (A) (B) (A) (A) (B)
                 (A) (B) (B) (A) (B) (A)
 The electronic state of the initial guess is 1-A.
 Leave Link  401 at Thu Oct 29 22:57:56 2020, MaxMem=   805306368 cpu:               4.0 elap:               3.3
 (Enter C:\G16W\l502.exe)
 Keep R1 ints in memory in symmetry-blocked form, NReq=137341860.
 FoFCou: FMM=F IPFlag=           0 FMFlag=           0 FMFlg1=           0
         NFxFlg=           0 DoJE=F BraDBF=F KetDBF=F FulRan=T
         wScrn=  0.000000 ICntrl=       600 IOpCl=  0 I1Cent=           0 NGrid=           0
         NMat0=    1 NMatS0=  13530 NMatT0=    0 NMatD0=    1 NMtDS0=    0 NMtDT0=    0
 Petite list used in FoFCou.
 Closed shell SCF:
 Using DIIS extrapolation, IDIIS=  1040.
 NGot=   805306368 LenX=   759438430 LenY=   759407364
 Requested convergence on RMS density matrix=1.00D-09 within  40 cycles.
 Requested convergence on MAX density matrix=1.00D-07.
 Requested convergence on             energy=1.00D-07.
 No special actions if energy rises.

 Cycle   1  Pass 1  IDiag  1:
 E= -1069.74676401545    
 DIIS: error= 5.78D-02 at cycle   1 NSaved=   1.
 NSaved= 1 IEnMin= 1 EnMin= -1069.74676401545     IErMin= 1 ErrMin= 5.78D-02
 ErrMax= 5.78D-02  0.00D+00 EMaxC= 1.00D-01 BMatC= 8.67D-01 BMatP= 8.67D-01
 IDIUse=3 WtCom= 4.22D-01 WtEn= 5.78D-01
 Coeff-Com:  0.100D+01
 Coeff-En:   0.100D+01
 Coeff:      0.100D+01
 Gap=     0.046 Goal=   None    Shift=    0.000
 GapD=    0.046 DampG=0.250 DampE=0.250 DampFc=0.1250 IDamp=-1.
 Damping current iteration by 1.25D-01
 RMSDP=9.84D-03 MaxDP=4.12D-01              OVMax= 2.49D-01

 Cycle   2  Pass 1  IDiag  1:
 E= -1069.89960330990     Delta-E=       -0.152839294455 Rises=F Damp=T
 DIIS: error= 3.93D-02 at cycle   2 NSaved=   2.
 NSaved= 2 IEnMin= 2 EnMin= -1069.89960330990     IErMin= 2 ErrMin= 3.93D-02
 ErrMax= 3.93D-02  0.00D+00 EMaxC= 1.00D-01 BMatC= 4.18D-01 BMatP= 8.67D-01
 IDIUse=3 WtCom= 6.07D-01 WtEn= 3.93D-01
 Coeff-Com: -0.222D+01 0.322D+01
 Coeff-En:   0.000D+00 0.100D+01
 Coeff:     -0.135D+01 0.235D+01
 Gap=     0.109 Goal=   None    Shift=    0.000
 RMSDP=4.00D-03 MaxDP=1.39D-01 DE=-1.53D-01 OVMax= 1.30D-01

 Cycle   3  Pass 1  IDiag  1:
 E= -1070.27658077490     Delta-E=       -0.376977465000 Rises=F Damp=F
 DIIS: error= 2.16D-02 at cycle   3 NSaved=   3.
 NSaved= 3 IEnMin= 3 EnMin= -1070.27658077490     IErMin= 3 ErrMin= 2.16D-02
 ErrMax= 2.16D-02  0.00D+00 EMaxC= 1.00D-01 BMatC= 1.26D-01 BMatP= 4.18D-01
 IDIUse=3 WtCom= 7.84D-01 WtEn= 2.16D-01
 EnCoef did   100 forward-backward iterations
 Coeff-Com: -0.497D-01 0.417D+00 0.633D+00
 Coeff-En:   0.105D+00 0.129D-02 0.894D+00
 Coeff:     -0.163D-01 0.327D+00 0.689D+00
 Gap=     0.146 Goal=   None    Shift=    0.000
 RMSDP=1.69D-03 MaxDP=4.92D-02 DE=-3.77D-01 OVMax= 4.27D-02

 Cycle   4  Pass 1  IDiag  1:
 E= -1070.35845951118     Delta-E=       -0.081878736282 Rises=F Damp=F
 DIIS: error= 4.27D-03 at cycle   4 NSaved=   4.
 NSaved= 4 IEnMin= 4 EnMin= -1070.35845951118     IErMin= 4 ErrMin= 4.27D-03
 ErrMax= 4.27D-03  0.00D+00 EMaxC= 1.00D-01 BMatC= 6.37D-03 BMatP= 1.26D-01
 IDIUse=3 WtCom= 9.57D-01 WtEn= 4.27D-02
 Coeff-Com:  0.101D+00-0.222D-01 0.340D+00 0.581D+00
 Coeff-En:   0.000D+00 0.000D+00 0.000D+00 0.100D+01
 Coeff:      0.965D-01-0.213D-01 0.326D+00 0.599D+00
 Gap=     0.150 Goal=   None    Shift=    0.000
 RMSDP=4.21D-04 MaxDP=1.25D-02 DE=-8.19D-02 OVMax= 1.38D-02

 Cycle   5  Pass 1  IDiag  1:
 E= -1070.36241842902     Delta-E=       -0.003958917832 Rises=F Damp=F
 DIIS: error= 1.81D-03 at cycle   5 NSaved=   5.
 NSaved= 5 IEnMin= 5 EnMin= -1070.36241842902     IErMin= 5 ErrMin= 1.81D-03
 ErrMax= 1.81D-03  0.00D+00 EMaxC= 1.00D-01 BMatC= 8.27D-04 BMatP= 6.37D-03
 IDIUse=3 WtCom= 9.82D-01 WtEn= 1.81D-02
 Coeff-Com:  0.548D-01-0.612D-01 0.108D+00 0.417D+00 0.482D+00
 Coeff-En:   0.000D+00 0.000D+00 0.000D+00 0.701D-01 0.930D+00
 Coeff:      0.538D-01-0.601D-01 0.106D+00 0.410D+00 0.490D+00
 Gap=     0.148 Goal=   None    Shift=    0.000
 RMSDP=1.40D-04 MaxDP=3.82D-03 DE=-3.96D-03 OVMax= 5.05D-03

 Cycle   6  Pass 1  IDiag  1:
 E= -1070.36302758413     Delta-E=       -0.000609155118 Rises=F Damp=F
 DIIS: error= 2.35D-04 at cycle   6 NSaved=   6.
 NSaved= 6 IEnMin= 6 EnMin= -1070.36302758413     IErMin= 6 ErrMin= 2.35D-04
 ErrMax= 2.35D-04  0.00D+00 EMaxC= 1.00D-01 BMatC= 1.46D-05 BMatP= 8.27D-04
 IDIUse=3 WtCom= 9.98D-01 WtEn= 2.35D-03
 Coeff-Com:  0.154D-01-0.183D-01 0.382D-01 0.176D+00 0.245D+00 0.544D+00
 Coeff-En:   0.000D+00 0.000D+00 0.000D+00 0.000D+00 0.000D+00 0.100D+01
 Coeff:      0.154D-01-0.182D-01 0.381D-01 0.175D+00 0.244D+00 0.545D+00
 Gap=     0.147 Goal=   None    Shift=    0.000
 RMSDP=2.10D-05 MaxDP=5.11D-04 DE=-6.09D-04 OVMax= 1.05D-03

 Cycle   7  Pass 1  IDiag  1:
 E= -1070.36303749374     Delta-E=       -0.000009909607 Rises=F Damp=F
 DIIS: error= 8.72D-05 at cycle   7 NSaved=   7.
 NSaved= 7 IEnMin= 7 EnMin= -1070.36303749374     IErMin= 7 ErrMin= 8.72D-05
 ErrMax= 8.72D-05  0.00D+00 EMaxC= 1.00D-01 BMatC= 1.65D-06 BMatP= 1.46D-05
 IDIUse=1 WtCom= 1.00D+00 WtEn= 0.00D+00
 Coeff-Com: -0.209D-02 0.187D-02 0.333D-02 0.330D-01 0.621D-01 0.296D+00
 Coeff-Com:  0.606D+00
 Coeff:     -0.209D-02 0.187D-02 0.333D-02 0.330D-01 0.621D-01 0.296D+00
 Coeff:      0.606D+00
 Gap=     0.148 Goal=   None    Shift=    0.000
 RMSDP=5.59D-06 MaxDP=1.30D-04 DE=-9.91D-06 OVMax= 1.53D-04

 Cycle   8  Pass 1  IDiag  1:
 E= -1070.36303865886     Delta-E=       -0.000001165119 Rises=F Damp=F
 DIIS: error= 1.01D-05 at cycle   8 NSaved=   8.
 NSaved= 8 IEnMin= 8 EnMin= -1070.36303865886     IErMin= 8 ErrMin= 1.01D-05
 ErrMax= 1.01D-05  0.00D+00 EMaxC= 1.00D-01 BMatC= 2.35D-08 BMatP= 1.65D-06
 IDIUse=1 WtCom= 1.00D+00 WtEn= 0.00D+00
 Coeff-Com: -0.117D-02 0.116D-02 0.581D-04 0.647D-02 0.136D-01 0.811D-01
 Coeff-Com:  0.206D+00 0.693D+00
 Coeff:     -0.117D-02 0.116D-02 0.581D-04 0.647D-02 0.136D-01 0.811D-01
 Coeff:      0.206D+00 0.693D+00
 Gap=     0.148 Goal=   None    Shift=    0.000
 RMSDP=9.50D-07 MaxDP=2.80D-05 DE=-1.17D-06 OVMax= 3.35D-05

 Cycle   9  Pass 1  IDiag  1:
 E= -1070.36303867455     Delta-E=       -0.000000015691 Rises=F Damp=F
 DIIS: error= 3.34D-06 at cycle   9 NSaved=   9.
 NSaved= 9 IEnMin= 9 EnMin= -1070.36303867455     IErMin= 9 ErrMin= 3.34D-06
 ErrMax= 3.34D-06  0.00D+00 EMaxC= 1.00D-01 BMatC= 3.46D-09 BMatP= 2.35D-08
 IDIUse=1 WtCom= 1.00D+00 WtEn= 0.00D+00
 Coeff-Com: -0.539D-03 0.593D-03-0.285D-03 0.383D-03 0.142D-02 0.167D-01
 Coeff-Com:  0.548D-01 0.316D+00 0.611D+00
 Coeff:     -0.539D-03 0.593D-03-0.285D-03 0.383D-03 0.142D-02 0.167D-01
 Coeff:      0.548D-01 0.316D+00 0.611D+00
 Gap=     0.148 Goal=   None    Shift=    0.000
 RMSDP=3.42D-07 MaxDP=9.51D-06 DE=-1.57D-08 OVMax= 1.28D-05

 Cycle  10  Pass 1  IDiag  1:
 E= -1070.36303867710     Delta-E=       -0.000000002546 Rises=F Damp=F
 DIIS: error= 1.27D-06 at cycle  10 NSaved=  10.
 NSaved=10 IEnMin=10 EnMin= -1070.36303867710     IErMin=10 ErrMin= 1.27D-06
 ErrMax= 1.27D-06  0.00D+00 EMaxC= 1.00D-01 BMatC= 4.08D-10 BMatP= 3.46D-09
 IDIUse=1 WtCom= 1.00D+00 WtEn= 0.00D+00
 Coeff-Com: -0.138D-03 0.162D-03-0.137D-03-0.455D-03-0.793D-03-0.819D-03
 Coeff-Com:  0.324D-02 0.688D-01 0.298D+00 0.632D+00
 Coeff:     -0.138D-03 0.162D-03-0.137D-03-0.455D-03-0.793D-03-0.819D-03
 Coeff:      0.324D-02 0.688D-01 0.298D+00 0.632D+00
 Gap=     0.148 Goal=   None    Shift=    0.000
 RMSDP=1.02D-07 MaxDP=2.65D-06 DE=-2.55D-09 OVMax= 2.98D-06

 Cycle  11  Pass 1  IDiag  1:
 E= -1070.36303867739     Delta-E=       -0.000000000289 Rises=F Damp=F
 DIIS: error= 4.04D-07 at cycle  11 NSaved=  11.
 NSaved=11 IEnMin=11 EnMin= -1070.36303867739     IErMin=11 ErrMin= 4.04D-07
 ErrMax= 4.04D-07  0.00D+00 EMaxC= 1.00D-01 BMatC= 3.71D-11 BMatP= 4.08D-10
 IDIUse=1 WtCom= 1.00D+00 WtEn= 0.00D+00
 Coeff-Com: -0.957D-05 0.124D-04-0.356D-04-0.243D-03-0.532D-03-0.221D-02
 Coeff-Com: -0.425D-02 0.290D-02 0.981D-01 0.320D+00 0.586D+00
 Coeff:     -0.957D-05 0.124D-04-0.356D-04-0.243D-03-0.532D-03-0.221D-02
 Coeff:     -0.425D-02 0.290D-02 0.981D-01 0.320D+00 0.586D+00
 Gap=     0.148 Goal=   None    Shift=    0.000
 RMSDP=3.76D-08 MaxDP=1.59D-06 DE=-2.89D-10 OVMax= 1.01D-06

 Cycle  12  Pass 1  IDiag  1:
 E= -1070.36303867745     Delta-E=       -0.000000000066 Rises=F Damp=F
 DIIS: error= 6.21D-08 at cycle  12 NSaved=  12.
 NSaved=12 IEnMin=12 EnMin= -1070.36303867745     IErMin=12 ErrMin= 6.21D-08
 ErrMax= 6.21D-08  0.00D+00 EMaxC= 1.00D-01 BMatC= 9.93D-13 BMatP= 3.71D-11
 IDIUse=1 WtCom= 1.00D+00 WtEn= 0.00D+00
 Coeff-Com:  0.607D-06-0.173D-06-0.615D-05-0.592D-04-0.125D-03-0.633D-03
 Coeff-Com: -0.139D-02-0.235D-02 0.154D-01 0.676D-01 0.197D+00 0.724D+00
 Coeff:      0.607D-06-0.173D-06-0.615D-05-0.592D-04-0.125D-03-0.633D-03
 Coeff:     -0.139D-02-0.235D-02 0.154D-01 0.676D-01 0.197D+00 0.724D+00
 Gap=     0.148 Goal=   None    Shift=    0.000
 RMSDP=5.81D-09 MaxDP=1.04D-07 DE=-6.62D-11 OVMax= 2.57D-07

 Cycle  13  Pass 1  IDiag  1:
 E= -1070.36303867741     Delta-E=        0.000000000042 Rises=F Damp=F
 DIIS: error= 6.46D-09 at cycle  13 NSaved=  13.
 NSaved=13 IEnMin=12 EnMin= -1070.36303867745     IErMin=13 ErrMin= 6.46D-09
 ErrMax= 6.46D-09  0.00D+00 EMaxC= 1.00D-01 BMatC= 1.79D-14 BMatP= 9.93D-13
 IDIUse=1 WtCom= 1.00D+00 WtEn= 0.00D+00
 Coeff-Com:  0.393D-06-0.478D-06 0.562D-06 0.130D-05 0.566D-05-0.263D-05
 Coeff-Com: -0.307D-04-0.454D-03-0.236D-02-0.383D-02 0.588D-02 0.888D-01
 Coeff-Com:  0.912D+00
 Coeff:      0.393D-06-0.478D-06 0.562D-06 0.130D-05 0.566D-05-0.263D-05
 Coeff:     -0.307D-04-0.454D-03-0.236D-02-0.383D-02 0.588D-02 0.888D-01
 Coeff:      0.912D+00
 Gap=     0.148 Goal=   None    Shift=    0.000
 RMSDP=1.18D-09 MaxDP=2.43D-08 DE= 4.16D-11 OVMax= 5.44D-08

 Cycle  14  Pass 1  IDiag  1:
 E= -1070.36303867743     Delta-E=       -0.000000000024 Rises=F Damp=F
 DIIS: error= 7.66D-10 at cycle  14 NSaved=  14.
 NSaved=14 IEnMin=12 EnMin= -1070.36303867745     IErMin=14 ErrMin= 7.66D-10
 ErrMax= 7.66D-10  0.00D+00 EMaxC= 1.00D-01 BMatC= 2.03D-16 BMatP= 1.79D-14
 IDIUse=1 WtCom= 1.00D+00 WtEn= 0.00D+00
 Coeff-Com:  0.171D-07-0.284D-07 0.180D-06 0.124D-05 0.317D-05 0.132D-04
 Coeff-Com:  0.249D-04-0.150D-04-0.655D-03-0.183D-02-0.273D-02-0.256D-02
 Coeff-Com:  0.139D+00 0.869D+00
 Coeff:      0.171D-07-0.284D-07 0.180D-06 0.124D-05 0.317D-05 0.132D-04
 Coeff:      0.249D-04-0.150D-04-0.655D-03-0.183D-02-0.273D-02-0.256D-02
 Coeff:      0.139D+00 0.869D+00
 Gap=     0.148 Goal=   None    Shift=    0.000
 RMSDP=1.72D-10 MaxDP=3.41D-09 DE=-2.41D-11 OVMax= 1.13D-08

 SCF Done:  E(RB3LYP) =  -1070.36303868     A.U. after   14 cycles
            NFock= 14  Conv=0.17D-09     -V/T= 1.9601
 KE= 1.114787550986D+03 PE=-4.345132481386D+03 EE= 1.294502175873D+03
 Leave Link  502 at Thu Oct 29 22:58:56 2020, MaxMem=   805306368 cpu:              60.0 elap:              60.0
 (Enter C:\G16W\l601.exe)
 Copying SCF densities to generalized density rwf, IOpCl= 0 IROHF=0.

 **********************************************************************

            Population analysis using the SCF Density.

 **********************************************************************

 Orbital symmetries:
       Occupied  (A) (B) (A) (B) (A) (A) (B) (B) (A) (A) (B) (A)
                 (B) (A) (B) (A) (B) (A) (B) (A) (B) (B) (A) (A)
                 (B) (A) (B) (A) (A) (B) (A) (A) (B) (A) (B) (B)
                 (A) (B) (A) (B) (A) (B) (A) (A) (B) (A) (B) (B)
                 (A) (B)
       Virtual   (A) (B) (B) (A) (A) (A) (B) (A) (B) (B) (A) (B)
                 (A) (B) (B) (A) (A) (B) (B) (A) (B) (A) (B) (A)
                 (A) (A) (B) (A) (A) (B) (A) (B) (A) (B) (B) (B)
                 (A) (A) (A) (B) (B) (B) (A) (B) (A) (A) (A) (B)
                 (B) (B) (A) (A) (B) (B) (A) (B) (A) (B) (A) (B)
                 (A) (B) (A) (B) (A) (B) (B) (A) (A) (B) (A) (B)
                 (B) (A) (A) (B) (A) (B) (B) (A) (B) (A) (A) (B)
                 (A) (A) (B) (B) (A) (B) (A) (B) (A) (B) (A) (B)
                 (A) (A) (B) (B) (A) (A) (B) (B) (A) (A) (B) (A)
                 (B) (A) (B) (A) (B) (A)
 The electronic state is 1-A.
 Alpha  occ. eigenvalues --  -89.05779 -19.26063 -19.26061 -19.20207 -19.20206
 Alpha  occ. eigenvalues --  -19.08297 -19.08293 -19.06198 -19.06197  -8.08473
 Alpha  occ. eigenvalues --   -6.04994  -6.04918  -6.04823  -1.12561  -1.12426
 Alpha  occ. eigenvalues --   -1.06634  -1.05962  -1.05754  -0.92300  -0.91192
 Alpha  occ. eigenvalues --   -0.89213  -0.66031  -0.66029  -0.65338  -0.65082
 Alpha  occ. eigenvalues --   -0.65000  -0.63094  -0.62575  -0.57901  -0.57776
 Alpha  occ. eigenvalues --   -0.52912  -0.52113  -0.50105  -0.46597  -0.45979
 Alpha  occ. eigenvalues --   -0.43625  -0.42779  -0.41529  -0.40887  -0.39685
 Alpha  occ. eigenvalues --   -0.37920  -0.37781  -0.30641  -0.28546  -0.28365
 Alpha  occ. eigenvalues --   -0.27031  -0.26157  -0.21720  -0.20974  -0.20508
 Alpha virt. eigenvalues --   -0.05753  -0.02859  -0.00838   0.02418   0.06323
 Alpha virt. eigenvalues --    0.07871   0.08665   0.11176   0.12740   0.14141
 Alpha virt. eigenvalues --    0.15831   0.16577   0.18317   0.18591   0.20584
 Alpha virt. eigenvalues --    0.21126   0.22470   0.25645   0.27485   0.40204
 Alpha virt. eigenvalues --    0.42969   0.48079   0.49059   0.64623   0.70272
 Alpha virt. eigenvalues --    0.72327   0.72517   0.74223   0.76823   0.76858
 Alpha virt. eigenvalues --    0.82558   0.82586   0.84304   0.85582   0.88515
 Alpha virt. eigenvalues --    0.89125   0.89916   0.90772   0.91280   0.92723
 Alpha virt. eigenvalues --    0.95120   0.97326   0.97490   0.98409   0.99280
 Alpha virt. eigenvalues --    1.01422   1.03794   1.05519   1.08386   1.09195
 Alpha virt. eigenvalues --    1.09195   1.11419   1.11495   1.14684   1.14732
 Alpha virt. eigenvalues --    1.18197   1.18450   1.23186   1.23255   1.26660
 Alpha virt. eigenvalues --    1.29734   1.32774   1.35661   1.42187   1.42545
 Alpha virt. eigenvalues --    1.52625   1.54341   1.54653   1.54757   1.59262
 Alpha virt. eigenvalues --    1.64259   1.64405   1.66057   1.67797   1.69898
 Alpha virt. eigenvalues --    1.70077   1.72133   1.72798   1.74763   1.75900
 Alpha virt. eigenvalues --    1.80071   1.82847   1.84363   1.85270   1.87277
 Alpha virt. eigenvalues --    1.87991   1.88404   1.89133   1.90125   1.90192
 Alpha virt. eigenvalues --    1.92541   1.93645   2.01197   2.02234   2.06486
 Alpha virt. eigenvalues --    2.10197   2.13104   2.19090   2.19690   2.23227
 Alpha virt. eigenvalues --    2.27077   2.28515   2.29712   2.35277   2.37203
 Alpha virt. eigenvalues --    2.47547   2.49433   2.52502   2.53482   2.57735
 Alpha virt. eigenvalues --    2.70587   2.84399   2.88926   6.73748
          Condensed to atoms (all electrons):
               1          2          3          4          5          6
     1  Zn  10.541979   0.121423  -0.009860  -0.014544   0.115640  -0.006784
     2  O    0.121423   8.224600   0.241812   0.236304  -0.001263  -0.000054
     3  H   -0.009860   0.241812   0.291690  -0.012940  -0.000323  -0.000011
     4  H   -0.014544   0.236304  -0.012940   0.295756   0.000008   0.000001
     5  O    0.115640  -0.001263  -0.000323   0.000008   8.335948   0.245592
     6  H   -0.006784  -0.000054  -0.000011   0.000001   0.245592   0.313209
     7  H   -0.024787   0.000049   0.000000   0.000007   0.175370  -0.010498
     8  O    0.121423  -0.001384   0.000049  -0.000147  -0.009617   0.000258
     9  H   -0.014544  -0.000147   0.000010   0.000039   0.009774  -0.000279
    10  H   -0.009860   0.000049   0.000000   0.000010  -0.000219   0.000012
    11  O    0.115640  -0.009617  -0.000219   0.009774   0.000020  -0.000003
    12  H   -0.024787   0.000175  -0.000084  -0.000132  -0.000046  -0.000006
    13  H   -0.006784   0.000258   0.000012  -0.000279  -0.000003   0.000000
    14  S   -0.026930  -0.000675   0.000070  -0.000057   0.001979   0.001520
    15  O    0.007502   0.000000   0.000003   0.000000  -0.000338   0.000357
    16  O    0.007502   0.000000   0.000002   0.000000  -0.000005   0.000002
    17  O    0.144240   0.000040  -0.000038  -0.000013  -0.029522   0.000454
    18  O    0.144240  -0.003990   0.002141  -0.000190  -0.001783   0.000013
               7          8          9         10         11         12
     1  Zn  -0.024787   0.121423  -0.014544  -0.009860   0.115640  -0.024787
     2  O    0.000049  -0.001384  -0.000147   0.000049  -0.009617   0.000175
     3  H    0.000000   0.000049   0.000010   0.000000  -0.000219  -0.000084
     4  H    0.000007  -0.000147   0.000039   0.000010   0.009774  -0.000132
     5  O    0.175370  -0.009617   0.009774  -0.000219   0.000020  -0.000046
     6  H   -0.010498   0.000258  -0.000279   0.000012  -0.000003  -0.000006
     7  H    0.309177   0.000175  -0.000132  -0.000084  -0.000046   0.000118
     8  O    0.000175   8.224600   0.236304   0.241812  -0.001263   0.000049
     9  H   -0.000132   0.236304   0.295756  -0.012940   0.000008   0.000007
    10  H   -0.000084   0.241812  -0.012940   0.291690  -0.000323   0.000000
    11  O   -0.000046  -0.001263   0.000008  -0.000323   8.335948   0.175370
    12  H    0.000118   0.000049   0.000007   0.000000   0.175370   0.309177
    13  H   -0.000006  -0.000054   0.000001  -0.000011   0.245592  -0.010498
    14  S    0.008489  -0.000675  -0.000057   0.000070   0.001979   0.008489
    15  O    0.000705   0.000000   0.000000   0.000002  -0.000005   0.000165
    16  O    0.000165   0.000000   0.000000   0.000003  -0.000338   0.000705
    17  O    0.067794  -0.003990  -0.000190   0.002141  -0.001783  -0.001582
    18  O   -0.001582   0.000040  -0.000013  -0.000038  -0.029522   0.067794
              13         14         15         16         17         18
     1  Zn  -0.006784  -0.026930   0.007502   0.007502   0.144240   0.144240
     2  O    0.000258  -0.000675   0.000000   0.000000   0.000040  -0.003990
     3  H    0.000012   0.000070   0.000003   0.000002  -0.000038   0.002141
     4  H   -0.000279  -0.000057   0.000000   0.000000  -0.000013  -0.000190
     5  O   -0.000003   0.001979  -0.000338  -0.000005  -0.029522  -0.001783
     6  H    0.000000   0.001520   0.000357   0.000002   0.000454   0.000013
     7  H   -0.000006   0.008489   0.000705   0.000165   0.067794  -0.001582
     8  O   -0.000054  -0.000675   0.000000   0.000000  -0.003990   0.000040
     9  H    0.000001  -0.000057   0.000000   0.000000  -0.000190  -0.000013
    10  H   -0.000011   0.000070   0.000002   0.000003   0.002141  -0.000038
    11  O    0.245592   0.001979  -0.000005  -0.000338  -0.001783  -0.029522
    12  H   -0.010498   0.008489   0.000165   0.000705  -0.001582   0.067794
    13  H    0.313209   0.001520   0.000002   0.000357   0.000013   0.000454
    14  S    0.001520  13.347548   0.470446   0.470446   0.203905   0.203905
    15  O    0.000002   0.470446   8.228489  -0.045034  -0.049621  -0.045723
    16  O    0.000357   0.470446  -0.045034   8.228489  -0.045723  -0.049621
    17  O    0.000013   0.203905  -0.049621  -0.045723   8.530817  -0.063634
    18  O    0.000454   0.203905  -0.045723  -0.049621  -0.063634   8.530817
 Mulliken charges:
               1
     1  Zn   0.819291
     2  O   -0.807581
     3  H    0.487685
     4  H    0.486404
     5  O   -0.841212
     6  H    0.456219
     7  H    0.475086
     8  O   -0.807581
     9  H    0.486404
    10  H    0.487685
    11  O   -0.841212
    12  H    0.475086
    13  H    0.456219
    14  S    1.308028
    15  O   -0.566952
    16  O   -0.566952
    17  O   -0.753309
    18  O   -0.753309
 Sum of Mulliken charges =   0.00000
 Mulliken charges with hydrogens summed into heavy atoms:
               1
     1  Zn   0.819291
     2  O    0.166508
     5  O    0.090093
     8  O    0.166508
    11  O    0.090093
    14  S    1.308028
    15  O   -0.566952
    16  O   -0.566952
    17  O   -0.753309
    18  O   -0.753309
 Electronic spatial extent (au):  <R**2>=           2064.3631
 Charge=              0.0000 electrons
 Dipole moment (field-independent basis, Debye):
    X=              0.0000    Y=              0.0000    Z=             13.1592  Tot=             13.1592
 Quadrupole moment (field-independent basis, Debye-Ang):
   XX=            -58.9948   YY=            -61.2997   ZZ=            -89.2935
   XY=             -1.1824   XZ=              0.0000   YZ=              0.0000
 Traceless Quadrupole moment (field-independent basis, Debye-Ang):
   XX=             10.8678   YY=              8.5630   ZZ=            -19.4308
   XY=             -1.1824   XZ=              0.0000   YZ=              0.0000
 Octapole moment (field-independent basis, Debye-Ang**2):
  XXX=              0.0000  YYY=              0.0000  ZZZ=            114.0351  XYY=              0.0000
  XXY=              0.0000  XXZ=             49.4523  XZZ=              0.0000  YZZ=              0.0000
  YYZ=             37.3983  XYZ=             -6.6556
 Hexadecapole moment (field-independent basis, Debye-Ang**3):
 XXXX=           -284.9412 YYYY=           -511.7873 ZZZZ=          -1577.3584 XXXY=             12.0745
 XXXZ=              0.0000 YYYX=             68.6604 YYYZ=              0.0000 ZZZX=              0.0000
 ZZZY=              0.0000 XXYY=           -127.1819 XXZZ=           -279.8205 YYZZ=           -352.9099
 XXYZ=              0.0000 YYXZ=              0.0000 ZZXY=            -39.0726
 N-N= 8.654797158504D+02 E-N=-4.345132481208D+03  KE= 1.114787550986D+03
 Symmetry A    KE= 6.903907820459D+02
 Symmetry B    KE= 4.243967689400D+02
 No NMR shielding tensors so no spin-rotation constants.
 Leave Link  601 at Thu Oct 29 22:58:58 2020, MaxMem=   805306368 cpu:               1.0 elap:               1.2
 (Enter C:\G16W\l701.exe)
 ... and contract with generalized density number  0.
 Compute integral first derivatives.
   1 Symmetry operations used in ECPInt.
 ECPInt:  NShTT=    1770 NPrTT=   11086 LenC2=    1701 LenP2D=    6842.
 LDataN:  DoStor=T MaxTD1= 6 Len=  172
 Leave Link  701 at Thu Oct 29 22:58:59 2020, MaxMem=   805306368 cpu:               0.0 elap:               0.6
 (Enter C:\G16W\l702.exe)
 L702 exits ... SP integral derivatives will be done elsewhere.
 Leave Link  702 at Thu Oct 29 22:59:00 2020, MaxMem=   805306368 cpu:               0.0 elap:               0.1
 (Enter C:\G16W\l703.exe)
 Integral derivatives from FoFJK, PRISM(SPDF).
 Compute integral first derivatives, UseDBF=F ICtDFT=           0.
 Calling FoFJK, ICntrl=      2127 FMM=F ISym2X=0 I1Cent= 0 IOpClX= 0 NMat=1 NMatS=1 NMatT=0.
 FoFJK:  IHMeth= 1 ICntrl=    2127 DoSepK=F KAlg= 0 I1Cent=           0 FoldK=F
 IRaf=         0 NMat=       1 IRICut=       1 DoRegI=T DoRafI=F ISym2E= 0 IDoP0=0 IntGTp=1.
 FoFCou: FMM=F IPFlag=           0 FMFlag=      100000 FMFlg1=         800
         NFxFlg=           0 DoJE=F BraDBF=F KetDBF=F FulRan=T
         wScrn=  0.000000 ICntrl=      2127 IOpCl=  0 I1Cent=           0 NGrid=           0
         NMat0=    1 NMatS0=      1 NMatT0=    0 NMatD0=    1 NMtDS0=    0 NMtDT0=    0
 Symmetry not used in FoFCou.
 Leave Link  703 at Thu Oct 29 22:59:12 2020, MaxMem=   805306368 cpu:              12.0 elap:              11.8
 (Enter C:\G16W\l716.exe)
 Dipole        = 0.00000000D+00-8.88178420D-15 5.17720890D+00
 ***** Axes restored to original set *****
 -------------------------------------------------------------------
 Center     Atomic                   Forces (Hartrees/Bohr)
 Number     Number              X              Y              Z
 -------------------------------------------------------------------
      1       30           0.000000000    0.000000000   -0.062260167
      2        8           0.003735330    0.004129251    0.004863073
      3        1          -0.000627090    0.001150712   -0.001388527
      4        1           0.002244690    0.000867715    0.000849755
      5        8           0.003988661   -0.003402518    0.003393492
      6        1           0.000973977   -0.000051706   -0.000730221
      7        1           0.005520665   -0.001410826   -0.005379545
      8        8          -0.003735330   -0.004129251    0.004863073
      9        1          -0.002244690   -0.000867715    0.000849755
     10        1           0.000627090   -0.001150712   -0.001388527
     11        8          -0.003988661    0.003402518    0.003393492
     12        1          -0.005520665    0.001410826   -0.005379545
     13        1          -0.000973977    0.000051706   -0.000730221
     14       16           0.000000000    0.000000000    0.031378592
     15        8          -0.001271121    0.001603353   -0.003467928
     16        8           0.001271121   -0.001603353   -0.003467928
     17        8          -0.001880704    0.005080409    0.017300688
     18        8           0.001880704   -0.005080409    0.017300688
 -------------------------------------------------------------------
 Cartesian Forces:  Max     0.062260167 RMS     0.010438627
 Leave Link  716 at Thu Oct 29 22:59:12 2020, MaxMem=   805306368 cpu:               0.0 elap:               0.1
 (Enter C:\G16W\l103.exe)

 GradGradGradGradGradGradGradGradGradGradGradGradGradGradGradGradGradGrad
 Berny optimization.
 FormGI is forming the generalized inverse of G from B-inverse, IUseBI=4.
 Internal  Forces:  Max     0.023732210 RMS     0.007589324
 Search for a local minimum.
 Step number   1 out of a maximum of  108
 All quantities printed in internal units (Hartrees-Bohrs-Radians)
 RMS Force = .75893D-02 SwitMx=.10000D-02 MixMth= 1
 Mixed Optimization -- RFO/linear search
 Second derivative matrix not updated -- first step.
 ITU=  0
     Eigenvalues ---    0.00635   0.00729   0.01026   0.01202   0.01584
     Eigenvalues ---    0.02234   0.02299   0.02510   0.03409   0.03761
     Eigenvalues ---    0.04366   0.04432   0.04643   0.04900   0.05132
     Eigenvalues ---    0.05143   0.05884   0.06071   0.06698   0.08335
     Eigenvalues ---    0.08633   0.09306   0.09632   0.10534   0.10975
     Eigenvalues ---    0.12027   0.12382   0.13093   0.14671   0.15383
     Eigenvalues ---    0.16306   0.16502   0.17679   0.17942   0.18803
     Eigenvalues ---    0.20542   0.40843   0.46216   0.47074   0.48141
     Eigenvalues ---    0.49100   0.50845   0.52363   0.52363   0.52987
     Eigenvalues ---    0.52987   0.88401   0.88401
 RFO step:  Lambda=-4.69383281D-02 EMin= 6.34871225D-03
 Linear search not attempted -- first point.
 Maximum step size (   0.300) exceeded in Quadratic search.
    -- Step size scaled by   0.625
 Iteration  1 RMS(Cart)=  0.08180418 RMS(Int)=  0.00265039
 Iteration  2 RMS(Cart)=  0.00245813 RMS(Int)=  0.00129887
 Iteration  3 RMS(Cart)=  0.00001932 RMS(Int)=  0.00129885
 Iteration  4 RMS(Cart)=  0.00000010 RMS(Int)=  0.00129885
 ITry= 1 IFail=0 DXMaxC= 3.59D-01 DCOld= 1.00D+10 DXMaxT= 3.00D-01 DXLimC= 3.00D+00 Rises=F
 ClnCor:  largest displacement from symmetrization is 1.54D-01 for atom    16.
          Exceeds limit of 1.00D-01 so symmetrization was rejected.
 Variable       Old X    -DE/DX   Delta X   Delta X   Delta X     New X
                                 (Linear)    (Quad)   (Total)
    R1        3.86041   0.01222   0.00000   0.03878   0.03862   3.89902
    R2        4.27668   0.00003   0.00000  -0.00383  -0.00442   4.27226
    R3        4.49247  -0.01270   0.00000  -0.08026  -0.08231   4.41016
    R4        3.86041   0.01041   0.00000   0.03525   0.03540   3.89580
    R5        4.27668  -0.00457   0.00000  -0.01576  -0.01835   4.25833
    R6        1.84254   0.00165   0.00000   0.00181   0.00181   1.84434
    R7        1.84405   0.00107   0.00000   0.00182   0.00173   1.84578
    R8        4.43885  -0.00480   0.00000  -0.02751  -0.02738   4.41147
    R9        1.83666  -0.00004   0.00000  -0.00005  -0.00005   1.83662
   R10        1.88711  -0.00819   0.00000  -0.01154  -0.01084   1.87627
   R11        4.43885  -0.00168   0.00000  -0.01166  -0.01180   4.42705
   R12        3.59782  -0.01982   0.00000  -0.14783  -0.14538   3.45244
   R13        1.84405   0.00199   0.00000   0.00238   0.00215   1.84620
   R14        1.84254   0.00165   0.00000   0.00181   0.00181   1.84434
   R15        1.88711  -0.01534   0.00000  -0.02287  -0.02110   1.86602
   R16        1.83666  -0.00004   0.00000  -0.00005  -0.00005   1.83662
   R17        3.59782  -0.01655   0.00000  -0.13138  -0.12840   3.46942
   R18        2.77379   0.00346   0.00000   0.00232   0.00232   2.77611
   R19        2.77379   0.00346   0.00000   0.00232   0.00232   2.77611
   R20        3.01933  -0.01778   0.00000  -0.01548  -0.01597   3.00337
   R21        3.01933  -0.01313   0.00000  -0.01143  -0.01099   3.00834
    A1        1.86654  -0.00026   0.00000  -0.00826  -0.00801   1.85853
    A2        2.24551   0.00008   0.00000   0.00071   0.00044   2.24595
    A3        1.93800   0.00115   0.00000  -0.00942  -0.00936   1.92865
    A4        1.43046  -0.00478   0.00000  -0.01643  -0.01602   1.41445
    A5        1.43046  -0.00343   0.00000  -0.01194  -0.01207   1.41839
    A6        2.87304   0.00739   0.00000   0.04074   0.03978   2.91282
    A7        1.48795  -0.00552   0.00000  -0.01586  -0.01525   1.47270
    A8        2.46608   0.00863   0.00000   0.03740   0.03602   2.50211
    A9        1.86654  -0.00017   0.00000  -0.00798  -0.00782   1.85872
   A10        1.86902  -0.00236   0.00000  -0.00485  -0.00491   1.86411
   A11        1.76787   0.00391   0.00000   0.00919   0.00895   1.77682
   A12        1.83009   0.00152   0.00000   0.00758   0.00724   1.83733
   A13        1.91150  -0.00450   0.00000  -0.00881  -0.00940   1.90209
   A14        2.08733  -0.00360   0.00000  -0.01142  -0.01171   2.07562
   A15        1.10941   0.00413   0.00000   0.01416   0.01445   1.12386
   A16        1.82934   0.00643   0.00000   0.02202   0.02060   1.84994
   A17        2.71398   0.00069   0.00000   0.00998   0.00976   2.72375
   A18        1.73956  -0.00710   0.00000  -0.03162  -0.03010   1.70946
   A19        1.14128  -0.02197   0.00000  -0.07249  -0.07129   1.06999
   A20        2.38461  -0.01531   0.00000  -0.03482  -0.03387   2.35075
   A21        1.76787   0.00241   0.00000   0.00678   0.00707   1.77494
[...]
 3327044,-0.0918405,-0.0309784,-0.0876566,0.3623401,-0.8847101,0.136752
 9,-0.162235,0.1655241,-0.5891284,0.1876698,-0.1858183,0.2071886,-0.649
 7282,0.5179895,-0.0922776,0.1874419,-0.170086,0.3787271,-0.218341,0.21
 54927,-0.1648676,0.4272898,0.3920179,-0.0396923,0.0526152,-0.053628,0.
 274313,-0.0404088,0.0490779,-0.0935881,0.2689862,2.3028889,-0.0441058,
 0.0406968,0.0143801,2.0066899,0.0563499,0.1876934,-0.0691288,2.667529,
 -1.2913767,0.29849,0.0927197,0.2816742,-0.7033497,0.0164677,0.1239647,
 -0.0212902,-0.9418685,-0.7049505,0.0522225,0.2782937,0.0463685,-0.5774
 768,-0.130859,0.1620748,-0.0729606,-1.1441939,-0.7224828,-0.0429988,0.
 0262881,-0.0613644,-1.1124191,0.3231814,0.0169441,0.3635706,-1.1868319
 ,-1.0793741,-0.1771243,-0.3885525,-0.2383698,-0.9568412,-0.2697068,-0.
 3932164,-0.2415909,-1.3346873|Polar=60.3839889,-2.7498523,56.9626697,-
 1.5948841,0.4244988,72.0436268|Quadrupole=4.4463269,7.5454299,-11.9917
 568,1.0243206,-0.90995,-0.100523|PG=C01 [X(H8O8S1Zn1)]|NImag=0||0.1208
 7967,0.01716473,0.10516156,-0.01581045,0.00713572,0.14465143,-0.010019
 16,-0.00629613,-0.00324334,0.46718213,0.00165037,-0.02611208,-0.004259
 48,0.06645972,0.10679216,-0.00264037,-0.00726314,-0.01654869,0.1204214
 4,-0.10394346,0.55570091,0.00306195,-0.00592145,0.00209579,-0.07776006
 ,-0.04809059,0.10501839,0.07560059,-0.00801036,-0.01558859,0.00622847,
 -0.03014902,-0.05718745,0.12134762,0.03603538,0.07218618,0.00097355,0.
 00361152,0.01342838,0.05242854,0.11064563,-0.36774724,-0.06582607,-0.1
 2756667,0.37531474,-0.00128572,-0.00133488,-0.00151650,-0.38232092,-0.
 01981941,-0.22027132,0.00763113,-0.00118262,0.00943608,0.37739989,-0.0
 0738572,0.00085560,-0.00383984,-0.02966547,-0.01999307,0.00230355,0.01
 522909,0.00084369,0.00663006,0.02151706,0.01742654,-0.00268807,-0.0031
 7375,-0.00125467,-0.16698133,0.01053719,-0.15174811,-0.04293378,-0.002
 98562,-0.01758447,0.21037265,-0.00495184,0.17199700,-0.02311188,0.0006
 3281,-0.00157768,-0.00605530,-0.00283234,-0.00491383,0.00131136,0.0015
 6384,-0.00018808,-0.00020166,-0.00138304,0.00104768,0.07578802,0.00762
 535,-0.01202202,0.00090771,-0.00239446,0.00163971,-0.00145265,0.001792
 94,-0.00020013,-0.00015660,-0.00035622,-0.00054687,0.00023361,-0.07205
 703,0.52697347,0.00504751,-0.00374270,-0.01666304,-0.00541624,-0.00131
 061,0.00160038,-0.00008985,-0.00111591,-0.00389369,-0.00039949,-0.0009
 7782,0.00040093,-0.02909207,0.10734905,0.43141349,-0.00032467,0.007702
 92,0.00277038,0.00218631,-0.00090800,0.00120462,-0.00186108,0.00009566
 ,0.00079836,0.00034201,0.00003523,-0.00067429,-0.01828819,0.05037764,0
 .01442164,0.01824181,0.00202396,-0.00253097,-0.00051315,-0.00067782,-0
 .00095471,-0.00035800,-0.00041608,0.00062239,0.00001695,-0.00016665,-0
 .00016714,0.00011310,0.05752156,-0.44750046,-0.15064220,-0.05807864,0.
 45057986,0.00185620,0.00118260,0.00209685,0.00048543,-0.00052755,-0.00
 104985,0.00065757,0.00023716,0.00103542,0.00003623,0.00008237,-0.00014
 333,0.01136478,-0.10787145,-0.09120446,-0.01776748,0.14832767,0.097263
 89,-0.00174769,0.00242291,-0.01226508,-0.00124158,-0.00025311,0.001013
 16,-0.00044812,-0.00079896,-0.00164820,-0.00024953,-0.00026898,-0.0000
 5049,-0.02814755,0.00767742,-0.00311344,0.00039914,0.00008775,0.004535
 95,0.04831951,0.00300694,0.00158219,0.00433782,0.00014300,-0.00024633,
 -0.00000648,-0.00060781,0.00020661,-0.00012852,-0.00012450,0.00005602,
 0.00005724,0.00698227,-0.06422344,0.04626907,0.00018097,0.00120679,-0.
 04478314,-0.01330945,0.07345258,-0.02007489,0.00838026,0.00788683,0.00
 344688,0.00025205,-0.00145221,-0.00127895,0.00079911,0.00318017,0.0001
 4038,0.00056654,-0.00010163,0.01295941,-0.00359136,-0.27438469,0.00068
 081,0.00110559,-0.00638792,0.01201312,-0.00482916,0.26717090,-0.018454
 54,-0.00508999,0.01245808,0.00037814,-0.00169520,0.00008192,-0.0002012
 9,0.00033712,-0.00016662,0.00006737,0.00043951,0.00024174,0.00234344,0
 .00394480,-0.00407456,0.00023698,0.00009672,-0.00090889,-0.00101130,0.
 00070071,0.00326225,0.43163641,-0.00590648,-0.02060217,0.01109038,-0.0
 0160490,-0.00202474,0.00063935,0.00007936,-0.00007045,-0.00082443,0.00
 022173,-0.00029239,0.00036875,0.00494755,-0.00951405,0.01247629,0.0002
 6639,0.00003633,0.00145632,0.00164254,-0.00209696,-0.00500504,-0.12388
 292,0.57853722,0.00721375,0.00648179,-0.01956134,0.00007343,0.00048866
 ,0.00196530,-0.00023337,-0.00074031,-0.00090531,0.00014209,0.00017112,
 -0.00048658,-0.00312185,0.00844816,0.00125192,-0.00039988,0.00061551,-
 0.00266857,0.00014719,-0.00004877,0.00077076,0.11792434,0.09911529,0.1
 4940195,-0.01120018,-0.00554724,0.00595947,0.00008441,0.00054972,-0.00
 015109,0.00008799,-0.00009196,0.00016007,-0.00010336,-0.00004834,-0.00
 008673,-0.00358158,0.00134489,-0.00025973,-0.00025198,0.00053661,-0.00
 015431,-0.00029983,-0.00000814,-0.00106895,-0.36306249,0.16182788,-0.1
 0258668,0.37507878,-0.00968575,0.00699297,-0.00081429,0.00087575,-0.00
 044480,0.00033224,-0.00029615,-0.00001347,0.00006997,0.00005636,0.0004
 3122,-0.00015419,0.00227723,-0.00126635,-0.00809758,0.00030711,-0.0007
 7566,-0.00067017,-0.00082632,0.00267762,0.00661958,0.11601172,-0.11476
 363,0.02392068,-0.15238179,0.12629672,0.01089743,0.00060464,0.00220379
 ,-0.00038774,-0.00007694,-0.00103707,0.00031800,0.00025008,0.00041205,
 -0.00015887,-0.00012400,0.00024531,-0.00053918,-0.00318440,-0.00247918
 ,-0.00092977,-0.00093054,0.00299262,0.00064763,-0.00005369,-0.00313934
 ,-0.12603553,0.04597949,-0.05328646,0.10163228,-0.03271179,0.04904647,
 0.00182190,-0.00543972,-0.00266147,-0.00033551,-0.00032741,0.00043213,
 -0.00001590,-0.00018934,-0.00030144,0.00010035,-0.00005117,-0.00002021
 ,0.00013029,0.00005492,-0.00039424,-0.00004425,0.00005234,0.00000332,0
 .00039500,0.00028343,-0.00045299,-0.05169585,-0.03477329,-0.02297661,0
 .00295677,0.04235570,0.01673936,0.04810495,-0.00314241,-0.00625690,0.0
 0118187,0.00013700,0.00040841,0.00014740,-0.00003709,-0.00016775,-0.00
 003958,-0.00004986,-0.00007631,-0.00006443,-0.00007026,0.00044037,0.00
 062132,0.00007760,-0.00003004,-0.00008151,0.00020159,-0.00036354,0.000
 28608,0.01165218,-0.43244682,-0.14063862,-0.00652606,-0.01714266,-0.01
 002056,-0.00344550,0.45497475,0.00097297,0.00593707,0.00242659,0.00014
 534,0.00009270,-0.00042214,0.00001768,0.00021383,0.00035826,0.00000999
 ,0.00002974,0.00005165,-0.00060921,0.00088783,-0.00261702,-0.00009375,
 0.00000949,0.00011466,-0.00044051,0.00061941,0.00079269,-0.00718207,-0
 .16956949,-0.06907160,-0.00214172,0.01311191,0.00395408,0.00985349,0.1
 5076070,0.06388584,-0.02582305,-0.00137615,-0.00147435,0.00064169,0.00
 451298,0.00167020,-0.00061025,-0.00061576,-0.00043230,-0.00106627,0.00
 030721,-0.00024950,-0.00104275,0.00053652,0.00045165,0.00020808,-0.000
 17208,-0.00019706,0.00068682,-0.00020152,-0.00043489,-0.00259721,-0.00
 114085,0.00173318,0.00046273,-0.00031659,-0.00007144,-0.00006840,0.000
 72542,-0.00033358,0.08174935,0.00663413,-0.01421361,0.00231569,0.00386
 706,-0.00601832,-0.00274085,-0.00071302,0.00150320,0.00006547,0.000100
 32,0.00151553,0.00183376,0.00076965,0.00071617,-0.00089309,-0.00048819
 ,0.00003910,0.00002699,-0.00060948,-0.00020033,0.00093099,-0.00190464,
 0.00169496,-0.00032901,0.00005149,-0.00096571,0.00056902,0.00109440,-0
 .00000050,-0.00006592,-0.07717304,0.59325852,-0.00107648,0.00380188,-0
 .01164558,0.00153044,-0.00345625,0.00303114,-0.00052778,-0.00068971,-0
 .00353648,-0.00000189,0.00152707,0.00007913,-0.00056453,-0.00038471,0.
 00260070,-0.00000309,-0.00001981,-0.00030214,0.00126331,-0.00009305,-0
 .00274881,0.00247862,-0.00061482,0.00097473,-0.00007651,0.00096538,-0.
 00081116,-0.00050434,-0.00004195,-0.00042994,-0.01186378,-0.00477672,0
 .40863162,-0.01429286,-0.00593159,0.01539382,-0.00031097,-0.00084336,-
 0.00270146,0.00036960,0.00193412,0.00224274,0.00066189,-0.00036870,0.0
 0010098,0.00095975,0.00010992,-0.00149160,-0.00016225,0.00008461,0.000
 23466,-0.00083181,0.00003065,0.00149074,-0.00074711,0.00077702,-0.0008
 1646,-0.00018277,-0.00055564,0.00052904,0.00027000,-0.00014536,0.00021
 133,-0.02295362,0.00474469,0.00491577,0.03466670,-0.00657345,0.0098863
 2,-0.00407959,-0.00089897,-0.00113449,0.00238607,0.00146710,-0.0017816
 4,-0.00198658,0.00019332,0.00048633,-0.00105669,-0.00053670,-0.0005974
 9,0.00143065,0.00023214,-0.00005614,-0.00012330,0.00080951,0.00013537,
 -0.00160208,0.00116390,-0.00048136,0.00018536,-0.00012565,0.00062977,-
 0.00039272,-0.00036781,-0.00002628,-0.00004182,0.01361669,-0.15697254,
 0.11932491,0.00050157,0.18255554,0.01351187,-0.00258118,0.00601157,-0.
 00228838,0.00213436,-0.00182966,0.00147987,-0.00041727,0.00355981,0.00
 052404,-0.00159174,-0.00127289,0.00043423,0.00035269,-0.00210996,-0.00
 003279,0.00001174,0.00025792,-0.00105419,-0.00007831,0.00217458,-0.001
 05253,0.00024562,-0.00038496,0.00009968,-0.00045844,0.00036854,0.00030
 686,0.00000678,0.00013223,-0.00380126,0.17436337,-0.27706503,-0.015236
 69,-0.14943545,0.26800234,-0.00297889,0.00901764,0.00394717,-0.0007985
 2,0.00147903,-0.00004079,0.00009903,-0.00002592,0.00049379,-0.00015411
 ,-0.00015613,0.00002454,0.00026667,-0.00032326,-0.00037261,-0.00002391
 ,0.00003375,0.00008208,-0.00028235,0.00014682,0.00037721,0.00065036,-0
 .00046960,-0.00043544,-0.00017709,0.00019296,-0.00005376,-0.00064352,-
 0.00023987,0.00045587,-0.02100717,0.05043888,0.02526143,0.00172932,0.0
 0004427,-0.00012822,0.02114207,0.00394930,-0.00077816,-0.00084892,-0.0
 0012790,0.00091624,0.00030951,0.00001523,-0.00019580,-0.00006744,-0.00
 000030,-0.00024398,-0.00012621,-0.00030820,-0.00001980,0.00015922,0.00
 006029,-0.00003043,-0.00003561,0.00016071,-0.00002356,-0.00010439,-0.0
 0022944,-0.00057691,0.00038427,0.00002051,0.00007720,-0.00012596,-0.00
 036787,0.00025995,0.00000735,0.05298131,-0.41269418,-0.13060238,0.0040
 1256,-0.02744042,-0.01715618,-0.05881842,0.44085002,0.00000160,-0.0018
 2865,0.00117956,0.00045901,-0.00069901,-0.00016050,0.00010363,0.000003
 91,-0.00000197,0.00002267,0.00044918,0.00024564,0.00016911,0.00006867,
 -0.00043418,-0.00005725,-0.00000300,0.00002489,-0.00020438,0.00006855,
 0.00040813,-0.00049906,0.00061654,-0.00041048,0.00001297,-0.00024824,0
 .00019652,0.00052067,-0.00006171,0.00020642,0.03365423,-0.18341877,-0.
 11481296,-0.00416574,0.03641818,0.01553143,-0.02919934,0.14822433,0.10
 201213,0.03497936,0.01275571,-0.00425277,-0.00388398,0.00308403,0.0144
 3970,0.00151497,-0.00718433,-0.01443393,-0.00033643,-0.00068521,-0.000
 26305,-0.00437693,0.00236468,-0.03650341,0.00127698,0.00128354,0.00078
 086,-0.02379386,0.00428760,0.05428822,-0.00246793,0.00196284,-0.001503
 92,0.00099889,-0.00321071,0.00257806,0.00038275,-0.00028698,0.00026378
 ,-0.00056029,-0.00899741,0.00845613,-0.01139241,0.00658167,-0.01345516
 ,0.00173810,0.00174664,-0.00111253,0.76859411,0.01177013,0.05050640,0.
 01549544,-0.00025313,0.00053087,0.00986241,-0.00136664,-0.00444878,-0.
 00879865,-0.00024545,0.00064170,-0.00062382,-0.00058267,-0.01102257,0.
 01811299,0.00328467,-0.00088722,-0.00046591,0.01001750,0.00524872,-0.0
 2907271,0.00490484,-0.00171974,-0.00914738,-0.00233481,0.00351432,0.00
 055243,-0.00139037,-0.00181717,0.00367029,-0.00592059,-0.02067349,0.00
 933885,-0.01010351,0.02233227,-0.01379156,0.00658643,-0.00063360,0.003
 59173,-0.12615295,0.56256897,0.00840045,0.00686846,-0.06582998,-0.0001
 1986,0.00330058,0.00624380,-0.00058208,-0.00394035,-0.00797909,-0.0005
 8329,-0.00090663,-0.00132417,-0.00716667,0.00457797,-0.01751750,0.0010
 9645,-0.00061520,-0.00045557,0.00873872,-0.00664717,0.02436341,-0.0031
 4061,-0.00133724,0.00345438,0.00178453,-0.00061748,-0.00090380,0.00061
 945,0.00138217,-0.00128721,0.00978680,-0.00624003,0.01035413,-0.013494
 21,0.00726095,-0.00940062,-0.00372971,0.00195001,-0.00040011,-0.158030
 99,0.04651830,0.91662595,-0.01444420,0.00206597,0.00872102,0.00250957,
 -0.00143476,-0.00349687,-0.00136285,0.00266502,0.00406135,0.00008947,0
 .00061640,0.00042583,0.00577606,-0.00321656,0.03993680,-0.00035079,-0.
 00130261,0.00062484,-0.00096228,-0.00035589,-0.04093419,0.00277166,-0.
 00202560,-0.00048349,-0.00101221,0.00303242,-0.00159542,-0.00064271,-0
 .00012484,0.00059241,-0.00153336,0.00377047,-0.00465810,0.00423680,-0.
 00503894,0.00457444,0.00051549,-0.00056960,0.00030342,-0.34286019,0.13
 039639,-0.00589161,0.38495223,0.00115752,-0.00944785,-0.00568744,-0.00
 057999,0.00085950,-0.00013920,0.00075618,-0.00045473,0.00034631,0.0000
 5619,-0.00024765,0.00002675,-0.00038109,0.01017072,-0.00993403,-0.0007
 6355,-0.00015669,0.00266873,-0.00177749,-0.01361845,0.01136224,-0.0013
 7848,0.00097865,0.00150815,0.00060409,-0.00139439,0.00012489,0.0004175
 4,0.00037367,-0.00092465,0.00181310,0.00306749,-0.00056456,0.00068164,
 -0.00291986,0.00163421,-0.00158230,0.00023729,-0.00075058,0.13296865,-
 0.14320373,0.00737299,-0.15881260,0.14492237,0.00656167,-0.00314345,0.
 00185679,-0.00130050,-0.00049298,-0.00015839,0.00065701,0.00027197,-0.
 00021740,0.00004667,-0.00002995,0.00030440,0.00863972,0.00162422,-0.04
 029248,-0.00048535,0.00206738,-0.00190775,-0.01176801,0.00381719,0.008
 68950,-0.00079678,0.00215906,-0.00080677,0.00012160,-0.00250970,0.0013
 7689,0.00000840,-0.00037079,-0.00009845,-0.00101985,0.00099608,-0.0008
 2529,0.00103139,-0.00161676,0.00100330,0.00049176,-0.00014572,-0.00014
 893,-0.02404583,0.01567258,-0.10485594,0.02870917,-0.02175496,0.109189
 32,-0.00492435,-0.00236927,-0.00140448,0.00073601,-0.00019328,-0.00152
 424,-0.00028385,0.00074534,0.00141743,-0.00005363,0.00005664,-0.000100
 94,0.00041330,-0.00094998,0.00860098,-0.00015284,-0.00036454,-0.000378
 06,0.00291848,0.00140080,-0.01195492,0.00013409,-0.00073296,0.00106332
 ,-0.00001241,0.00071664,-0.00065080,-0.00002287,0.00029735,-0.00023342
 ,0.00165037,0.00049821,-0.00044762,-0.00028553,-0.00014425,0.00130678,
 -0.00072521,-0.00013826,0.00049050,-0.18981898,0.04763841,0.19862431,-
 0.01466731,0.01195670,0.03491351,0.17805911,-0.00226500,-0.00841179,-0
 .00106072,0.00012169,-0.00041392,-0.00269875,0.00004891,0.00143901,0.0
 0202531,0.00010927,-0.00017110,0.00009218,0.00002924,0.00182515,-0.004
 31682,-0.00055309,0.00022611,0.00000099,-0.00110280,-0.00079072,0.0067
 1433,-0.00086109,0.00049953,0.00153376,0.00038548,-0.00075605,0.000014
 48,0.00025625,0.00022596,-0.00059060,0.00033128,0.00308851,-0.00104048
 ,0.00185269,-0.00309736,0.00159395,-0.00078362,-0.00006976,-0.00063632
 ,0.04764753,-0.09937774,-0.08470501,0.01438813,0.00946414,-0.01717990,
 -0.05219576,0.07973306,-0.00065978,0.00017366,0.00765868,0.00001802,-0
 .00145216,-0.00371088,0.00019579,0.00265742,0.00325280,0.00034103,0.00
 023610,0.00029865,0.00205350,-0.00070737,-0.00053266,-0.00038862,0.000
 30469,0.00034186,-0.00131154,0.00009602,0.00027862,0.00102148,0.000732
 26,-0.00211685,-0.00061697,-0.00011495,0.00060354,-0.00023684,-0.00073
 121,0.00064150,-0.00277779,0.00169571,-0.00186177,0.00301391,-0.002121
 54,0.00146170,0.00100284,-0.00050862,-0.00005516,0.20106907,-0.0845828
 5,-0.46347210,-0.00012264,0.00012650,0.00791693,-0.22135736,0.09461013
 ,0.48761149,-0.01189555,-0.00582111,-0.00533058,0.00116687,-0.00049838
 ,-0.00195272,-0.00077370,0.00099039,0.00266861,-0.00000644,0.00047048,
 0.00030314,0.00010392,0.00424434,0.00448986,-0.00140609,-0.00001992,-0
 .00026532,0.00186463,-0.00288951,-0.00301640,0.00113605,-0.00048303,0.
 00260468,0.00026466,0.00041822,-0.00168214,-0.00047525,0.00066533,-0.0
 0086406,-0.00619480,-0.00193111,-0.00566172,0.00269169,0.00174587,0.00
 089946,0.00223036,-0.00185087,0.00157737,-0.09034153,-0.01597406,0.014
 44697,0.00542390,0.03105922,-0.01757207,0.01136176,-0.01126021,0.01267
 956,0.07943449,-0.00614542,-0.03656560,-0.02654640,0.00025163,0.001106
 03,-0.00383585,-0.00017033,0.00129824,0.00502772,0.00016844,-0.0003974
 5,0.00036549,0.00230489,0.00172196,-0.00709300,-0.00008467,0.00057587,
 0.00042943,-0.00414731,-0.00110874,0.00903102,-0.00318529,0.00227916,0
 .00578328,0.00125248,-0.00231953,-0.00000070,0.00135464,0.00120687,-0.
 00299640,0.00303794,0.00810758,-0.00266632,0.00426466,-0.00720629,0.00
 563478,-0.00408104,-0.00064609,-0.00135410,-0.01541176,-0.21523740,0.0
 8597927,0.00972967,-0.01583899,0.01638388,0.00118515,0.01002459,0.0004
 9633,0.03523386,0.29101950,-0.00348021,-0.01374889,-0.04646307,-0.0000
 9430,-0.00174919,0.00195873,-0.00007331,0.00012005,-0.00250348,0.00008
 297,0.00061072,0.00036318,0.00488139,-0.00801075,0.00626569,0.00163189
 ,0.00016119,0.00018238,0.00189909,0.00198603,-0.01413664,0.00527792,0.
 00144135,-0.00909700,-0.00217009,0.00139777,0.00069850,-0.00094309,-0.
 00215098,0.00194702,-0.01333795,-0.00554084,-0.00097608,0.00025464,0.0
 0463620,-0.00442098,0.00374373,-0.00124577,-0.00043593,0.00889898,0.06
 466366,-0.15017196,-0.00865563,0.02156773,0.01036880,0.01003170,0.0321
 6984,-0.01855610,-0.00564910,-0.08698410,0.19534039,-0.02024015,-0.006
 63516,-0.00180904,0.00784087,-0.00084000,-0.00658888,-0.00635951,0.003
 88141,0.00831612,-0.00051402,0.00134115,0.00153185,-0.00228697,-0.0007
 7592,0.00825880,-0.00002526,-0.00052248,-0.00099080,0.00443233,0.00033
 363,-0.00944285,0.00088323,-0.00070568,0.00165573,-0.00005034,0.001028
 85,-0.00123715,-0.00021775,0.00031175,-0.00062454,-0.00194187,0.019847
 61,-0.01851986,0.00557359,-0.01267026,0.01391199,-0.00158062,-0.000535
 71,-0.00207688,-0.13965264,-0.05027419,-0.05075865,-0.02843929,-0.0161
 9534,-0.02419250,0.01567386,0.00385109,0.00607636,0.00541502,-0.025557
 54,-0.00229863,0.16148954,-0.00586784,-0.02245531,-0.00104328,0.000791
 92,0.00227699,-0.01488975,0.00219498,0.00200946,0.01112955,0.00085720,
 -0.00012065,-0.00049152,0.00112230,0.00342565,0.00170516,-0.00174446,-
 0.00019699,0.00014639,0.00007397,-0.00189382,-0.00184305,-0.00102445,0
 .00056337,0.00226804,0.00049083,-0.00077758,-0.00047374,0.00048327,0.0
 0043798,-0.00115143,0.00905413,-0.00125239,0.00999267,-0.00104599,-0.0
 1431174,-0.00046736,-0.00145962,0.00101199,-0.00044071,-0.05275352,-0.
 14632181,-0.06020158,0.00621693,0.01720851,0.00425187,-0.00740692,0.00
 656238,-0.01091013,-0.03409950,-0.03801969,-0.00932404,0.08411678,0.19
 185365,-0.00900673,-0.00869584,-0.01143408,0.00082316,-0.00948352,-0.0
 2463552,0.00100148,0.00532622,0.00382748,0.00177654,-0.00018463,-0.000
 07005,0.00622327,0.00090939,0.00859575,-0.00177190,0.00034860,-0.00019
 089,0.00159768,-0.00058304,-0.01336434,0.00111033,0.00103034,0.0009768
 8,-0.00045781,-0.00002071,-0.00044130,0.00000754,-0.00018497,-0.000584
 58,-0.01130231,0.02120815,-0.01065620,0.00848714,-0.00918580,-0.002019
 32,-0.00192055,-0.00006749,-0.00294450,-0.03717322,-0.04099581,-0.1374
 4363,-0.02211132,-0.00698308,0.00860545,-0.01839670,-0.02652636,-0.019
 76026,0.00232449,0.00234565,0.02963656,0.07878892,0.07174291,0.1719025
 6||-0.00002183,-0.00000744,0.00000213,-0.00000513,0.00000167,0.0000010
 7,0.00000155,0.00000143,-0.00000069,-0.00000052,0.00000139,-0.00000147
 ,0.00000519,0.00000233,0.00000236,0.00000008,-0.00000155,-0.00000238,0
 .00002127,0.00000172,-0.00000351,0.00000219,0.00000190,0.00000100,-0.0
 0000181,-0.00000136,0.00000018,-0.00000030,0.00000064,0.00000265,-0.00
 000038,0.00000341,0.00000011,0.00000046,0.00000257,-0.00000002,-0.0000
 0111,-0.00000024,0.00000156,0.00000744,-0.00000241,-0.00001003,-0.0000
 1207,-0.00000075,0.00000575,-0.00000296,-0.00000103,0.00000040,-0.0000
 0289,-0.00000350,-0.00000101,0.00001083,0.00000122,0.00000191|||@
 The archive entry for this job was punched.


  ON THE CHOICE OF THE CORRECT LANGUAGE -
 I SPEAK SPANISH TO GOD, ITALIAN TO WOMEN,
 FRENCH TO MEN, AND GERMAN TO MY HORSE.
          -- CHARLES V
 Job cpu time:       0 days  0 hours  9 minutes 50.0 seconds.
 Elapsed time:       0 days  0 hours  9 minutes 39.2 seconds.
 File lengths (MBytes):  RWF=     74 Int=      0 D2E=      0 Chk=      4 Scr=      1
 Normal termination of Gaussian 16 at Fri Oct 30 01:16:40 2020.
