 Default is to use a total of   8 processors:
                                8 via shared-memory
                                1 via Linda
 Entering Link 1 = C:\G16W\l1.exe PID=      4356.
  
 Copyright (c) 1988-2019, Gaussian, Inc.  All Rights Reserved.
  
 This is part of the Gaussian(R) 16 program.  It is based on
 the Gaussian(R) 09 system (copyright 2009, Gaussian, Inc.),
 the Gaussian(R) 03 system (copyright 2003, Gaussian, Inc.),
 the Gaussian(R) 98 system (copyright 1998, Gaussian, Inc.),
 the Gaussian(R) 94 system (copyright 1995, Gaussian, Inc.),
 the Gaussian 92(TM) system (copyright 1992, Gaussian, Inc.),
 the Gaussian 90(TM) system (copyright 1990, Gaussian, Inc.),
 the Gaussian 88(TM) system (copyright 1988, Gaussian, Inc.),
 the Gaussian 86(TM) system (copyright 1986, Carnegie Mellon
 University), and the Gaussian 82(TM) system (copyright 1983,
 Carnegie Mellon University). Gaussian is a federally registered
 trademark of Gaussian, Inc.
  
 This software contains proprietary and confidential information,
 including trade secrets, belonging to Gaussian, Inc.
  
 This software is provided under written license and may be
 used, copied, transmitted, or stored only in accord with that
 written license.
  
 The following legend is applicable only to US Government
 contracts under FAR:
  
                    RESTRICTED RIGHTS LEGEND
  
 Use, reproduction and disclosure by the US Government is
 subject to restrictions as set forth in subparagraphs (a)
 and (c) of the Commercial Computer Software - Restricted
 Rights clause in FAR 52.227-19.
  
 Gaussian, Inc.
 340 Quinnipiac St., Bldg. 40, Wallingford CT 06492
  
  
 ---------------------------------------------------------------
 Warning -- This program may not be used in any manner that
 competes with the business of Gaussian, Inc. or will provide
 assistance to any competitor of Gaussian, Inc.  The licensee
 of this program is prohibited from giving any competitor of
 Gaussian, Inc. access to this program.  By using this program,
 the user acknowledges that Gaussian, Inc. is engaged in the
 business of creating and licensing software in the field of
 computational chemistry and represents and warrants to the
 licensee that it is not a competitor of Gaussian, Inc. and that
 it will not use this program in any manner prohibited above.
 ---------------------------------------------------------------
  

 Cite this work as:
 Gaussian 16, Revision C.01,
 M. J. Frisch, G. W. Trucks, H. B. Schlegel, G. E. Scuseria, 
 M. A. Robb, J. R. Cheeseman, G. Scalmani, V. Barone, 
 G. A. Petersson, H. Nakatsuji, X. Li, M. Caricato, A. V. Marenich, 
 J. Bloino, B. G. Janesko, R. Gomperts, B. Mennucci, H. P. Hratchian, 
 J. V. Ortiz, A. F. Izmaylov, J. L. Sonnenberg, D. Williams-Young, 
 F. Ding, F. Lipparini, F. Egidi, J. Goings, B. Peng, A. Petrone, 
 T. Henderson, D. Ranasinghe, V. G. Zakrzewski, J. Gao, N. Rega, 
 G. Zheng, W. Liang, M. Hada, M. Ehara, K. Toyota, R. Fukuda, 
 J. Hasegawa, M. Ishida, T. Nakajima, Y. Honda, O. Kitao, H. Nakai, 
 T. Vreven, K. Throssell, J. A. Montgomery, Jr., J. E. Peralta, 
 F. Ogliaro, M. J. Bearpark, J. J. Heyd, E. N. Brothers, K. N. Kudin, 
 V. N. Staroverov, T. A. Keith, R. Kobayashi, J. Normand, 
 K. Raghavachari, A. P. Rendell, J. C. Burant, S. S. Iyengar, 
 J. Tomasi, M. Cossi, J. M. Millam, M. Klene, C. Adamo, R. Cammi, 
 J. W. Ochterski, R. L. Martin, K. Morokuma, O. Farkas, 
 J. B. Foresman, and D. J. Fox, Gaussian, Inc., Wallingford CT, 2019.
 
 ******************************************
 Gaussian 16:  EM64W-G16RevC.01 30-May-2019
                29-Oct-2020 
 ******************************************
 %chk=H:\Msci\data\ZnSO4\ZnSO4_B_inner1_64_forceSymmetry.chk
 Default route: MaxDisk=10GB
 ----------------------------------------------------------------------
 #p opt=tight freq b3lyp/gen geom=connectivity gfprint integral=grid=ul
 trafine pseudo=read scf=(conver=9,maxcycle=40) symmetry=(on,follow)
 ----------------------------------------------------------------------
 1/7=10,18=20,19=15,26=4,38=1,57=2/1,3;
 2/9=110,12=2,15=-1,17=6,18=5,40=1/2;
 3/5=7,11=2,16=1,17=8,24=100,25=1,30=1,71=1,74=-5,75=-5/1,2,3;
 4//1;
 5/5=2,6=9,7=40,38=5/2;
 6/7=2,8=2,9=2,10=2,28=1/1;
 7/30=1/1,2,3,16;
 1/7=10,18=20,19=15,26=4/3(2);
 2/9=110,15=5/2;
 99//99;
 2/9=110,15=5/2;
 3/5=7,6=1,11=2,16=1,17=8,25=1,30=1,71=1,74=-5,75=-5,82=7/1,2,3;
 4/5=5,16=3,69=1/1;
 5/5=2,6=9,7=40,38=5/2;
 7/30=1/1,2,3,16;
 1/7=10,18=20,19=15,26=4/3(-5);
 2/9=110,15=5/2;
 6/7=2,8=2,9=2,10=2,19=2,28=1/1;
 99/9=1/99;
 Leave Link    1 at Thu Oct 29 20:29:39 2020, MaxMem=           0 cpu:               0.0 elap:               0.2
 (Enter C:\G16W\l101.exe)
 ------------------
 ZnSO41 optmisation
 ------------------
 Symbolic Z-matrix:
 Charge =  0 Multiplicity = 1
 Zn(Iso=64)            0.        0.        1.05578 
 O                     0.84346   1.45749   2.21228 
 H                     0.9719    2.23754   1.64157 
 H                     1.74003   1.09754   2.34953 
 O                    -2.16884   0.57103   0.75281 
 H                    -2.39126   1.46644   0.44719 
 H                    -2.08712   0.02923  -0.08206 
 O                    -0.84346  -1.45749   2.21228 
 H                    -1.74003  -1.09754   2.34953 
 H                    -0.9719   -2.23754   1.64157 
 O                     2.16884  -0.57103   0.75281 
 H                     2.08712  -0.02923  -0.08206 
 H                     2.39126  -1.46644   0.44719 
 S                     0.        0.       -1.99382 
 O                    -1.02477   0.74092  -2.73907 
 O                     1.02477  -0.74092  -2.73907 
 O                    -0.7231   -0.97332  -0.95333 
 O                     0.7231    0.97332  -0.95333 
 
 Add virtual bond connecting atoms O17        and H7         Dist= 3.60D+00.
 Add virtual bond connecting atoms O18        and H12        Dist= 3.60D+00.
 Add virtual bond connecting atoms O2         and Zn1        Dist= 3.86D+00.
 Add virtual bond connecting atoms O8         and Zn1        Dist= 3.86D+00.
 Add virtual bond connecting atoms O5         and Zn1        Dist= 4.28D+00.
 Add virtual bond connecting atoms O5         and H9         Dist= 4.44D+00.
 Add virtual bond connecting atoms H7         and Zn1        Dist= 4.49D+00.
 Add virtual bond connecting atoms O11        and Zn1        Dist= 4.28D+00.
 Add virtual bond connecting atoms O11        and H4         Dist= 4.44D+00.
 ITRead=  0  0  0  0  0  0  0  0  0  0  0  0  0  0  0  0  0  0
 MicOpt= -1 -1 -1 -1 -1 -1 -1 -1 -1 -1 -1 -1 -1 -1 -1 -1 -1 -1
 NAtoms=     18 NQM=       18 NQMF=       0 NMMI=      0 NMMIF=      0
                NMic=       0 NMicF=      0.
                    Isotopes and Nuclear Properties:
 (Nuclear quadrupole moments (NQMom) in fm**2, nuclear magnetic moments (NMagM)
  in nuclear magnetons)

  Atom         1           2           3           4           5           6           7           8           9          10
 IAtWgt=          64          16           1           1          16           1           1          16           1           1
 AtmWgt=  63.9291454  15.9949146   1.0078250   1.0078250  15.9949146   1.0078250   1.0078250  15.9949146   1.0078250   1.0078250
 NucSpn=           0           0           1           1           0           1           1           0           1           1
 AtZEff=   0.0000000   0.0000000   0.0000000   0.0000000   0.0000000   0.0000000   0.0000000   0.0000000   0.0000000   0.0000000
 NQMom=    0.0000000   0.0000000   0.0000000   0.0000000   0.0000000   0.0000000   0.0000000   0.0000000   0.0000000   0.0000000
 NMagM=    0.0000000   0.0000000   2.7928460   2.7928460   0.0000000   2.7928460   2.7928460   0.0000000   2.7928460   2.7928460
 AtZNuc=  30.0000000   8.0000000   1.0000000   1.0000000   8.0000000   1.0000000   1.0000000   8.0000000   1.0000000   1.0000000

  Atom        11          12          13          14          15          16          17          18
 IAtWgt=          16           1           1          32          16          16          16          16
 AtmWgt=  15.9949146   1.0078250   1.0078250  31.9720718  15.9949146  15.9949146  15.9949146  15.9949146
 NucSpn=           0           1           1           0           0           0           0           0
 AtZEff=   0.0000000   0.0000000   0.0000000   0.0000000   0.0000000   0.0000000   0.0000000   0.0000000
 NQMom=    0.0000000   0.0000000   0.0000000   0.0000000   0.0000000   0.0000000   0.0000000   0.0000000
 NMagM=    0.0000000   2.7928460   2.7928460   0.0000000   0.0000000   0.0000000   0.0000000   0.0000000
 AtZNuc=   8.0000000   1.0000000   1.0000000  16.0000000   8.0000000   8.0000000   8.0000000   8.0000000
 Leave Link  101 at Thu Oct 29 20:29:39 2020, MaxMem=   805306368 cpu:               0.0 elap:               0.4
 (Enter C:\G16W\l103.exe)

 GradGradGradGradGradGradGradGradGradGradGradGradGradGradGradGradGradGrad
 Berny optimization.
 Initialization pass.
                           ----------------------------
                           !    Initial Parameters    !
                           ! (Angstroms and Degrees)  !
 --------------------------                            --------------------------
 ! Name  Definition              Value          Derivative Info.                !
 --------------------------------------------------------------------------------
 ! R1    R(1,2)                  2.0428         estimate D2E/DX2                !
 ! R2    R(1,5)                  2.2631         estimate D2E/DX2                !
 ! R3    R(1,7)                  2.3773         estimate D2E/DX2                !
 ! R4    R(1,8)                  2.0428         estimate D2E/DX2                !
 ! R5    R(1,11)                 2.2631         estimate D2E/DX2                !
 ! R6    R(2,3)                  0.975          estimate D2E/DX2                !
 ! R7    R(2,4)                  0.9758         estimate D2E/DX2                !
 ! R8    R(4,11)                 2.3489         estimate D2E/DX2                !
 ! R9    R(5,6)                  0.9719         estimate D2E/DX2                !
 ! R10   R(5,7)                  0.9986         estimate D2E/DX2                !
 ! R11   R(5,9)                  2.3489         estimate D2E/DX2                !
 ! R12   R(7,17)                 1.9039         estimate D2E/DX2                !
 ! R13   R(8,9)                  0.9758         estimate D2E/DX2                !
 ! R14   R(8,10)                 0.975          estimate D2E/DX2                !
 ! R15   R(11,12)                0.9986         estimate D2E/DX2                !
 ! R16   R(11,13)                0.9719         estimate D2E/DX2                !
 ! R17   R(12,18)                1.9039         estimate D2E/DX2                !
 ! R18   R(14,15)                1.4678         estimate D2E/DX2                !
 ! R19   R(14,16)                1.4678         estimate D2E/DX2                !
 ! R20   R(14,17)                1.5978         estimate D2E/DX2                !
 ! R21   R(14,18)                1.5978         estimate D2E/DX2                !
 ! A1    A(2,1,5)              106.9447         estimate D2E/DX2                !
 ! A2    A(2,1,7)              128.6582         estimate D2E/DX2                !
 ! A3    A(2,1,8)              111.0393         estimate D2E/DX2                !
 ! A4    A(2,1,11)              81.9594         estimate D2E/DX2                !
 ! A5    A(5,1,8)               81.9594         estimate D2E/DX2                !
 ! A6    A(5,1,11)             164.6134         estimate D2E/DX2                !
 ! A7    A(7,1,8)               85.2532         estimate D2E/DX2                !
 ! A8    A(7,1,11)             141.296          estimate D2E/DX2                !
 ! A9    A(8,1,11)             106.9447         estimate D2E/DX2                !
 ! A10   A(1,2,3)              107.0869         estimate D2E/DX2                !
 ! A11   A(1,2,4)              101.2914         estimate D2E/DX2                !
 ! A12   A(3,2,4)              104.8564         estimate D2E/DX2                !
 ! A13   A(2,4,11)             109.5206         estimate D2E/DX2                !
 ! A14   A(1,5,6)              119.5953         estimate D2E/DX2                !
 ! A15   A(1,5,9)               63.5648         estimate D2E/DX2                !
 ! A16   A(6,5,7)              104.8132         estimate D2E/DX2                !
 ! A17   A(6,5,9)              155.4999         estimate D2E/DX2                !
 ! A18   A(7,5,9)               99.6693         estimate D2E/DX2                !
 ! A19   A(1,7,17)              65.3906         estimate D2E/DX2                !
 ! A20   A(5,7,17)             136.6282         estimate D2E/DX2                !
 ! A21   A(1,8,9)              101.2914         estimate D2E/DX2                !
 ! A22   A(1,8,10)             107.0869         estimate D2E/DX2                !
 ! A23   A(9,8,10)             104.8564         estimate D2E/DX2                !
 ! A24   A(5,9,8)              109.5206         estimate D2E/DX2                !
 ! A25   A(1,11,4)              63.5648         estimate D2E/DX2                !
 ! A26   A(1,11,12)             84.0653         estimate D2E/DX2                !
 ! A27   A(1,11,13)            119.5953         estimate D2E/DX2                !
 ! A28   A(4,11,12)             99.6693         estimate D2E/DX2                !
 ! A29   A(4,11,13)            155.4999         estimate D2E/DX2                !
 ! A30   A(12,11,13)           104.8132         estimate D2E/DX2                !
 ! A31   A(11,12,18)           136.6282         estimate D2E/DX2                !
 ! A32   A(15,14,16)           118.9745         estimate D2E/DX2                !
 ! A33   A(15,14,17)           108.7943         estimate D2E/DX2                !
 ! A34   A(15,14,18)           109.8225         estimate D2E/DX2                !
 ! A35   A(16,14,17)           109.8225         estimate D2E/DX2                !
 ! A36   A(16,14,18)           108.7943         estimate D2E/DX2                !
 ! A37   A(17,14,18)            98.7339         estimate D2E/DX2                !
 ! A38   A(7,17,14)            107.5459         estimate D2E/DX2                !
 ! A39   A(12,18,14)           107.5459         estimate D2E/DX2                !
 ! D1    D(5,1,2,3)            -74.8083         estimate D2E/DX2                !
 ! D2    D(5,1,2,4)            175.6248         estimate D2E/DX2                !
 ! D3    D(7,1,2,3)            -61.3504         estimate D2E/DX2                !
 ! D4    D(7,1,2,4)           -170.9172         estimate D2E/DX2                !
 ! D5    D(8,1,2,3)           -162.5462         estimate D2E/DX2                !
 ! D6    D(8,1,2,4)             87.887          estimate D2E/DX2                !
 ! D7    D(11,1,2,3)            92.3227         estimate D2E/DX2                !
 ! D8    D(11,1,2,4)           -17.2442         estimate D2E/DX2                !
 ! D9    D(2,1,5,6)             50.532          estimate D2E/DX2                !
 ! D10   D(2,1,5,9)           -101.8815         estimate D2E/DX2                !
 ! D11   D(8,1,5,6)            160.1647         estimate D2E/DX2                !
 ! D12   D(8,1,5,9)              7.7512         estimate D2E/DX2                !
 ! D13   D(11,1,5,6)           -73.25           estimate D2E/DX2                !
 ! D14   D(11,1,5,9)           134.3366         estimate D2E/DX2                !
 ! D15   D(2,1,7,17)           147.5491         estimate D2E/DX2                !
 ! D16   D(8,1,7,17)           -99.1911         estimate D2E/DX2                !
 ! D17   D(11,1,7,17)           12.1592         estimate D2E/DX2                !
 ! D18   D(2,1,8,9)             87.887          estimate D2E/DX2                !
 ! D19   D(2,1,8,10)          -162.5462         estimate D2E/DX2                !
 ! D20   D(5,1,8,9)            -17.2442         estimate D2E/DX2                !
 ! D21   D(5,1,8,10)            92.3227         estimate D2E/DX2                !
 ! D22   D(7,1,8,9)            -41.8791         estimate D2E/DX2                !
 ! D23   D(7,1,8,10)            67.6878         estimate D2E/DX2                !
 ! D24   D(11,1,8,9)           175.6248         estimate D2E/DX2                !
 ! D25   D(11,1,8,10)          -74.8083         estimate D2E/DX2                !
 ! D26   D(2,1,11,4)             7.7512         estimate D2E/DX2                !
 ! D27   D(2,1,11,12)          -96.151          estimate D2E/DX2                !
 ! D28   D(2,1,11,13)          160.1647         estimate D2E/DX2                !
 ! D29   D(5,1,11,4)           134.3366         estimate D2E/DX2                !
 ! D30   D(5,1,11,12)           30.4343         estimate D2E/DX2                !
 ! D31   D(5,1,11,13)          -73.25           estimate D2E/DX2                !
 ! D32   D(7,1,11,4)           154.12           estimate D2E/DX2                !
 ! D33   D(7,1,11,12)           50.2178         estimate D2E/DX2                !
 ! D34   D(7,1,11,13)          -53.4665         estimate D2E/DX2                !
 ! D35   D(8,1,11,4)          -101.8815         estimate D2E/DX2                !
 ! D36   D(8,1,11,12)          154.2163         estimate D2E/DX2                !
 ! D37   D(8,1,11,13)           50.532          estimate D2E/DX2                !
 ! D38   D(1,2,4,11)            17.4608         estimate D2E/DX2                !
 ! D39   D(3,2,4,11)           -93.8205         estimate D2E/DX2                !
 ! D40   D(2,4,11,1)           -17.2547         estimate D2E/DX2                !
 ! D41   D(2,4,11,12)           61.1006         estimate D2E/DX2                !
 ! D42   D(2,4,11,13)         -121.0854         estimate D2E/DX2                !
 ! D43   D(6,5,7,17)           118.7502         estimate D2E/DX2                !
 ! D44   D(9,5,7,17)           -62.1873         estimate D2E/DX2                !
 ! D45   D(1,5,9,8)            -17.2547         estimate D2E/DX2                !
 ! D46   D(6,5,9,8)           -121.0854         estimate D2E/DX2                !
 ! D47   D(7,5,9,8)             61.1006         estimate D2E/DX2                !
 ! D48   D(1,7,17,14)          -93.1337         estimate D2E/DX2                !
 ! D49   D(5,7,17,14)          -92.7848         estimate D2E/DX2                !
 ! D50   D(1,8,9,5)             17.4608         estimate D2E/DX2                !
 ! D51   D(10,8,9,5)           -93.8205         estimate D2E/DX2                !
 ! D52   D(1,11,12,18)          -0.335          estimate D2E/DX2                !
 ! D53   D(4,11,12,18)         -62.1873         estimate D2E/DX2                !
 ! D54   D(13,11,12,18)        118.7502         estimate D2E/DX2                !
 ! D55   D(11,12,18,14)        -92.7848         estimate D2E/DX2                !
 ! D56   D(15,14,17,7)         -45.6693         estimate D2E/DX2                !
 ! D57   D(16,14,17,7)        -177.475          estimate D2E/DX2                !
 ! D58   D(18,14,17,7)          68.8306         estimate D2E/DX2                !
 ! D59   D(15,14,18,12)       -177.475          estimate D2E/DX2                !
 ! D60   D(16,14,18,12)        -45.6693         estimate D2E/DX2                !
 ! D61   D(17,14,18,12)         68.8306         estimate D2E/DX2                !
 --------------------------------------------------------------------------------
 Trust Radius=3.00D-01 FncErr=1.00D-07 GrdErr=1.00D-06 EigMax=2.50D+02 EigMin=1.00D-04
 Number of steps in this run=    108 maximum allowed number of steps=    108.
 GradGradGradGradGradGradGradGradGradGradGradGradGradGradGradGradGradGrad

 Leave Link  103 at Thu Oct 29 20:29:40 2020, MaxMem=   805306368 cpu:               0.0 elap:               0.1
 (Enter C:\G16W\l202.exe)
                          Input orientation:                          
 ---------------------------------------------------------------------
 Center     Atomic      Atomic             Coordinates (Angstroms)
 Number     Number       Type             X           Y           Z
 ---------------------------------------------------------------------
      1         30           0        0.000000    0.000000    1.055777
      2          8           0        0.843457    1.457492    2.212275
      3          1           0        0.971903    2.237544    1.641573
      4          1           0        1.740027    1.097536    2.349527
      5          8           0       -2.168836    0.571033    0.752811
      6          1           0       -2.391261    1.466436    0.447185
      7          1           0       -2.087123    0.029232   -0.082062
      8          8           0       -0.843457   -1.457492    2.212275
      9          1           0       -1.740027   -1.097536    2.349527
     10          1           0       -0.971903   -2.237544    1.641573
     11          8           0        2.168836   -0.571033    0.752811
     12          1           0        2.087123   -0.029232   -0.082062
     13          1           0        2.391261   -1.466436    0.447185
     14         16           0        0.000000    0.000000   -1.993816
     15          8           0       -1.024765    0.740918   -2.739075
     16          8           0        1.024765   -0.740918   -2.739075
     17          8           0       -0.723104   -0.973325   -0.953334
     18          8           0        0.723104    0.973325   -0.953334
 ---------------------------------------------------------------------
                    Distance matrix (angstroms):
                    1          2          3          4          5
     1  Zn   0.000000
     2  O    2.042839   0.000000
     3  H    2.508856   0.975029   0.000000
     4  H    2.430240   0.975830   1.546231   0.000000
     5  O    2.263121   3.462622   3.664888   4.255105   0.000000
     6  H    2.870357   3.684973   3.651307   4.563171   0.971919
     7  H    2.377312   3.986502   4.147915   4.658430   0.998618
     8  O    2.042839   3.367908   4.156263   3.636123   2.828706
     9  H    2.430240   3.636123   4.356434   4.114500   2.348936
    10  H    2.508856   4.156263   4.879016   4.356434   3.179725
    11  O    2.263121   2.828706   3.179725   2.348936   4.485501
    12  H    2.377312   3.003504   3.058252   2.702352   4.378415
    13  H    2.870357   3.749746   4.142536   3.258368   5.003916
    14  S    3.049592   4.530662   4.378042   4.805924   3.545968
    15  O    4.000000   5.340374   5.041493   5.802165   3.678454
    16  O    4.000000   5.420493   5.297556   5.457598   4.910557
    17  O    2.346650   4.287664   4.462765   4.611330   2.717740
    18  O    2.346650   3.204681   2.897187   3.458099   3.381729
                    6          7          8          9         10
     6  H    0.000000
     7  H    1.561460   0.000000
     8  O    3.749746   3.003504   0.000000
     9  H    3.258368   2.702352   0.975830   0.000000
    10  H    4.142536   3.058252   0.975029   1.546231   0.000000
    11  O    5.003916   4.378415   3.462622   4.255105   3.664888
    12  H    4.751110   4.174654   3.986502   4.658430   4.147915
    13  H    5.610192   4.751110   3.684973   4.563171   3.651307
    14  S    3.718474   2.830501   4.530662   4.805924   4.378042
    15  O    3.542025   2.948697   5.420493   5.457598   5.297556
    16  O    5.166614   4.163735   5.340374   5.802165   5.041493
    17  O    3.270570   1.903886   3.204681   3.458099   2.897187
    18  O    3.450201   3.089951   4.287664   4.611330   4.462765
                   11         12         13         14         15
    11  O    0.000000
    12  H    0.998618   0.000000
    13  H    0.971919   1.561460   0.000000
    14  S    3.545968   2.830501   3.718474   0.000000
    15  O    4.910557   4.163735   5.166614   1.467826   0.000000
    16  O    3.678454   2.948697   3.542025   1.467826   2.529112
    17  O    3.381729   3.089951   3.450201   1.597762   2.493691
    18  O    2.717740   1.903886   3.270570   1.597762   2.509568
                   16         17         18
    16  O    0.000000
    17  O    2.509568   0.000000
    18  O    2.493691   2.425070   0.000000
 Stoichiometry    H8O8SZn
 Framework group  C2[C2(SZn),X(H8O8)]
 Deg. of freedom    24
 Full point group                 C2      NOp   2
 Largest Abelian subgroup         C2      NOp   2
 Largest concise Abelian subgroup C2      NOp   2
                         Standard orientation:                         
 ---------------------------------------------------------------------
 Center     Atomic      Atomic             Coordinates (Angstroms)
 Number     Number       Type             X           Y           Z
 ---------------------------------------------------------------------
      1         30           0        0.000000    0.000000    1.082492
      2          8           0        1.624212   -0.444563    2.238991
      3          1           0        2.411260   -0.370165    1.668289
      4          1           0        1.504398   -1.403234    2.376243
      5          8           0        0.000000    2.242750    0.779527
      6          1           0        0.809261    2.685826    0.473901
      7          1           0       -0.503139    2.025780   -0.055346
      8          8           0       -1.624212    0.444563    2.238991
      9          1           0       -1.504398    1.403234    2.376243
     10          1           0       -2.411260    0.370165    1.668289
     11          8           0        0.000000   -2.242750    0.779527
     12          1           0        0.503139   -2.025780   -0.055346
     13          1           0       -0.809261   -2.685826    0.473901
     14         16           0        0.000000    0.000000   -1.967100
     15          8           0        0.455581    1.179639   -2.712359
     16          8           0       -0.455581   -1.179639   -2.712359
     17          8           0       -1.125358    0.451452   -0.926618
     18          8           0        1.125358   -0.451452   -0.926618
 ---------------------------------------------------------------------
 Rotational constants (GHZ):           1.2795164           0.6303784           0.5550661
 Leave Link  202 at Thu Oct 29 20:29:40 2020, MaxMem=   805306368 cpu:               0.0 elap:               0.1
 (Enter C:\G16W\l301.exe)
 General basis read from cards:  (5D, 7F)
 Centers:       3      4      6      7      9     10     12     13      2      5
 Centers:       8     11     15     16     17     18     14
 6-31g(d)
 ****
 Centers:       1
 LanL2DZ
 ****
 ======================================================================================================
                                       Pseudopotential Parameters
 ======================================================================================================
  Center     Atomic      Valence      Angular      Power
  Number     Number     Electrons     Momentum     of R      Exponent        Coefficient   SO-Coeffient
 ======================================================================================================
    1         30           12
                                      F and up 
                                                     1      386.7379660      -18.00000000    0.00000000
                                                     2       72.8587359     -124.35274030    0.00000000
                                                     2       15.9066170      -30.66018220    0.00000000
                                                     2        4.3502340      -10.63589890    0.00000000
                                                     2        1.2842199       -0.76836230    0.00000000
                                      S - F
                                                     0       19.0867858        3.00000000    0.00000000
                                                     1        5.0231080       22.52342250    0.00000000
                                                     2        1.2701744       48.44659420    0.00000000
                                                     2        1.0671287      -44.55601190    0.00000000
                                                     2        0.9264190       12.99839580    0.00000000
                                      P - F
                                                     0       43.4927750        5.00000000    0.00000000
                                                     1       20.8692669       20.74355890    0.00000000
                                                     2       21.7118378       90.30271580    0.00000000
                                                     2        6.3616915       74.66103160    0.00000000
                                                     2        1.2291195        9.88944240    0.00000000
                                      D - F
                                                     2       13.5851800       -4.84903590    0.00000000
                                                     2        9.8373050        3.69133790    0.00000000
                                                     2        0.8373113       -0.50373190    0.00000000
    2          8
                                   No pseudopotential on this center.
    3          1
                                   No pseudopotential on this center.
    4          1
                                   No pseudopotential on this center.
    5          8
                                   No pseudopotential on this center.
    6          1
                                   No pseudopotential on this center.
    7          1
                                   No pseudopotential on this center.
    8          8
                                   No pseudopotential on this center.
    9          1
                                   No pseudopotential on this center.
   10          1
                                   No pseudopotential on this center.
   11          8
                                   No pseudopotential on this center.
   12          1
                                   No pseudopotential on this center.
   13          1
                                   No pseudopotential on this center.
   14         16
                                   No pseudopotential on this center.
   15          8
                                   No pseudopotential on this center.
   16          8
                                   No pseudopotential on this center.
   17          8
                                   No pseudopotential on this center.
   18          8
                                   No pseudopotential on this center.
 ======================================================================================================
 Ernie: Thresh=  0.10000D-02 Tol=  0.10000D-05 Strict=F.
 AO basis set (Overlap normalization):
 Atom Zn1      Shell     1 S   2     bf    1 -     1          0.000000000000          0.000000000000          2.045614308852
      0.7997000000D+00 -0.6486111877D+00
      0.1752000000D+00  0.1313829075D+01
 Atom Zn1      Shell     2 S   1     bf    2 -     2          0.000000000000          0.000000000000          2.045614308852
      0.5560000000D-01  0.1000000000D+01
 Atom Zn1      Shell     3 P   1     bf    3 -     5          0.000000000000          0.000000000000          2.045614308852
      0.1202000000D+00  0.1000000000D+01
 Atom Zn1      Shell     4 P   1     bf    6 -     8          0.000000000000          0.000000000000          2.045614308852
      0.3510000000D-01  0.1000000000D+01
 Atom Zn1      Shell     5 D   4     bf    9 -    13          0.000000000000          0.000000000000          2.045614308852
      0.6885000000D+02  0.2585320117D-01
      0.1832000000D+02  0.1651195075D+00
      0.5922000000D+01  0.4468212202D+00
      0.1927000000D+01  0.5831080264D+00
 Atom Zn1      Shell     6 D   1     bf   14 -    18          0.000000000000          0.000000000000          2.045614308852
      0.5528000000D+00  0.1000000000D+01
 Atom O2       Shell     7 S   6     bf   19 -    19          3.069315944428         -0.840102359711          4.231079474832
      0.5484671660D+04  0.1831074430D-02
      0.8252349460D+03  0.1395017220D-01
      0.1880469580D+03  0.6844507810D-01
      0.5296450000D+02  0.2327143360D+00
      0.1689757040D+02  0.4701928980D+00
      0.5799635340D+01  0.3585208530D+00
 Atom O2       Shell     8 SP   3    bf   20 -    23          3.069315944428         -0.840102359711          4.231079474832
      0.1553961625D+02 -0.1107775495D+00  0.7087426823D-01
      0.3599933586D+01 -0.1480262627D+00  0.3397528391D+00
      0.1013761750D+01  0.1130767015D+01  0.7271585773D+00
 Atom O2       Shell     9 SP   1    bf   24 -    27          3.069315944428         -0.840102359711          4.231079474832
      0.2700058226D+00  0.1000000000D+01  0.1000000000D+01
 Atom O2       Shell    10 D   1     bf   28 -    32          3.069315944428         -0.840102359711          4.231079474832
      0.8000000000D+00  0.1000000000D+01
 Atom H3       Shell    11 S   3     bf   33 -    33          4.556621743979         -0.699510413392          3.152608845228
      0.1873113696D+02  0.3349460434D-01
      0.2825394365D+01  0.2347269535D+00
      0.6401216923D+00  0.8137573261D+00
 Atom H3       Shell    12 S   1     bf   34 -    34          4.556621743979         -0.699510413392          3.152608845228
      0.1612777588D+00  0.1000000000D+01
 Atom H4       Shell    13 S   3     bf   35 -    35          2.842899559605         -2.651728037198          4.490447883624
      0.1873113696D+02  0.3349460434D-01
      0.2825394365D+01  0.2347269535D+00
      0.6401216923D+00  0.8137573261D+00
 Atom H4       Shell    14 S   1     bf   36 -    36          2.842899559605         -2.651728037198          4.490447883624
      0.1612777588D+00  0.1000000000D+01
 Atom O5       Shell    15 S   6     bf   37 -    37          0.000000000000          4.238184033435          1.473092180977
      0.5484671660D+04  0.1831074430D-02
      0.8252349460D+03  0.1395017220D-01
      0.1880469580D+03  0.6844507810D-01
      0.5296450000D+02  0.2327143360D+00
      0.1689757040D+02  0.4701928980D+00
      0.5799635340D+01  0.3585208530D+00
 Atom O5       Shell    16 SP   3    bf   38 -    41          0.000000000000          4.238184033435          1.473092180977
      0.1553961625D+02 -0.1107775495D+00  0.7087426823D-01
      0.3599933586D+01 -0.1480262627D+00  0.3397528391D+00
      0.1013761750D+01  0.1130767015D+01  0.7271585773D+00
 Atom O5       Shell    17 SP   1    bf   42 -    45          0.000000000000          4.238184033435          1.473092180977
      0.2700058226D+00  0.1000000000D+01  0.1000000000D+01
 Atom O5       Shell    18 D   1     bf   46 -    50          0.000000000000          4.238184033435          1.473092180977
      0.8000000000D+00  0.1000000000D+01
 Atom H6       Shell    19 S   3     bf   51 -    51          1.529281684042          5.075475448526          0.895542743885
      0.1873113696D+02  0.3349460434D-01
      0.2825394365D+01  0.2347269535D+00
      0.6401216923D+00  0.8137573261D+00
 Atom H6       Shell    20 S   1     bf   52 -    52          1.529281684042          5.075475448526          0.895542743885
      0.1612777588D+00  0.1000000000D+01
 Atom H7       Shell    21 S   3     bf   53 -    53         -0.950794868268          3.828170093476         -0.104589156513
      0.1873113696D+02  0.3349460434D-01
      0.2825394365D+01  0.2347269535D+00
      0.6401216923D+00  0.8137573261D+00
 Atom H7       Shell    22 S   1     bf   54 -    54         -0.950794868268          3.828170093476         -0.104589156513
      0.1612777588D+00  0.1000000000D+01
 Atom O8       Shell    23 S   6     bf   55 -    55         -3.069315944428          0.840102359711          4.231079474832
      0.5484671660D+04  0.1831074430D-02
      0.8252349460D+03  0.1395017220D-01
      0.1880469580D+03  0.6844507810D-01
      0.5296450000D+02  0.2327143360D+00
      0.1689757040D+02  0.4701928980D+00
      0.5799635340D+01  0.3585208530D+00
 Atom O8       Shell    24 SP   3    bf   56 -    59         -3.069315944428          0.840102359711          4.231079474832
      0.1553961625D+02 -0.1107775495D+00  0.7087426823D-01
      0.3599933586D+01 -0.1480262627D+00  0.3397528391D+00
      0.1013761750D+01  0.1130767015D+01  0.7271585773D+00
 Atom O8       Shell    25 SP   1    bf   60 -    63         -3.069315944428          0.840102359711          4.231079474832
      0.2700058226D+00  0.1000000000D+01  0.1000000000D+01
 Atom O8       Shell    26 D   1     bf   64 -    68         -3.069315944428          0.840102359711          4.231079474832
      0.8000000000D+00  0.1000000000D+01
 Atom H9       Shell    27 S   3     bf   69 -    69         -2.842899559605          2.651728037198          4.490447883624
      0.1873113696D+02  0.3349460434D-01
      0.2825394365D+01  0.2347269535D+00
      0.6401216923D+00  0.8137573261D+00
 Atom H9       Shell    28 S   1     bf   70 -    70         -2.842899559605          2.651728037198          4.490447883624
      0.1612777588D+00  0.1000000000D+01
 Atom H10      Shell    29 S   3     bf   71 -    71         -4.556621743979          0.699510413392          3.152608845228
      0.1873113696D+02  0.3349460434D-01
      0.2825394365D+01  0.2347269535D+00
      0.6401216923D+00  0.8137573261D+00
 Atom H10      Shell    30 S   1     bf   72 -    72         -4.556621743979          0.699510413392          3.152608845228
      0.1612777588D+00  0.1000000000D+01
 Atom O11      Shell    31 S   6     bf   73 -    73          0.000000000000         -4.238184033435          1.473092180977
      0.5484671660D+04  0.1831074430D-02
      0.8252349460D+03  0.1395017220D-01
      0.1880469580D+03  0.6844507810D-01
      0.5296450000D+02  0.2327143360D+00
      0.1689757040D+02  0.4701928980D+00
      0.5799635340D+01  0.3585208530D+00
 Atom O11      Shell    32 SP   3    bf   74 -    77          0.000000000000         -4.238184033435          1.473092180977
      0.1553961625D+02 -0.1107775495D+00  0.7087426823D-01
      0.3599933586D+01 -0.1480262627D+00  0.3397528391D+00
      0.1013761750D+01  0.1130767015D+01  0.7271585773D+00
 Atom O11      Shell    33 SP   1    bf   78 -    81          0.000000000000         -4.238184033435          1.473092180977
      0.2700058226D+00  0.1000000000D+01  0.1000000000D+01
 Atom O11      Shell    34 D   1     bf   82 -    86          0.000000000000         -4.238184033435          1.473092180977
      0.8000000000D+00  0.1000000000D+01
 Atom H12      Shell    35 S   3     bf   87 -    87          0.950794868268         -3.828170093476         -0.104589156513
      0.1873113696D+02  0.3349460434D-01
      0.2825394365D+01  0.2347269535D+00
      0.6401216923D+00  0.8137573261D+00
 Atom H12      Shell    36 S   1     bf   88 -    88          0.950794868268         -3.828170093476         -0.104589156513
      0.1612777588D+00  0.1000000000D+01
 Atom H13      Shell    37 S   3     bf   89 -    89         -1.529281684042         -5.075475448526          0.895542743885
      0.1873113696D+02  0.3349460434D-01
      0.2825394365D+01  0.2347269535D+00
      0.6401216923D+00  0.8137573261D+00
 Atom H13      Shell    38 S   1     bf   90 -    90         -1.529281684042         -5.075475448526          0.895542743885
      0.1612777588D+00  0.1000000000D+01
 Atom S14      Shell    39 S   6     bf   91 -    91          0.000000000000          0.000000000000         -3.717280137600
      0.2191710000D+05  0.1869240849D-02
      0.3301490000D+04  0.1423030646D-01
      0.7541460000D+03  0.6969623166D-01
      0.2127110000D+03  0.2384871083D+00
      0.6798960000D+02  0.4833072195D+00
      0.2305150000D+02  0.3380741536D+00
 Atom S14      Shell    40 SP   6    bf   92 -    95          0.000000000000          0.000000000000         -3.717280137600
      0.4237350000D+03 -0.2376770499D-02  0.4061009982D-02
      0.1007100000D+03 -0.3169300665D-01  0.3068129986D-01
      0.3215990000D+02 -0.1133170238D+00  0.1304519994D+00
      0.1180790000D+02  0.5609001177D-01  0.3272049985D+00
      0.4631100000D+01  0.5922551243D+00  0.4528509980D+00
      0.1870250000D+01  0.4550060955D+00  0.2560419989D+00
 Atom S14      Shell    41 SP   3    bf   96 -    99          0.000000000000          0.000000000000         -3.717280137600
      0.2615840000D+01 -0.2503731142D+00 -0.1451048955D-01
      0.9221670000D+00  0.6695676310D-01  0.3102627765D+00
      0.3412870000D+00  0.1054506269D+01  0.7544824565D+00
 Atom S14      Shell    42 SP   1    bf  100 -   103          0.000000000000          0.000000000000         -3.717280137600
      0.1171670000D+00  0.1000000000D+01  0.1000000000D+01
 Atom S14      Shell    43 D   1     bf  104 -   108          0.000000000000          0.000000000000         -3.717280137600
      0.6500000000D+00  0.1000000000D+01
 Atom O15      Shell    44 S   6     bf  109 -   109          0.860923091599          2.229194932550         -5.125615617573
      0.5484671660D+04  0.1831074430D-02
      0.8252349460D+03  0.1395017220D-01
      0.1880469580D+03  0.6844507810D-01
      0.5296450000D+02  0.2327143360D+00
      0.1689757040D+02  0.4701928980D+00
      0.5799635340D+01  0.3585208530D+00
 Atom O15      Shell    45 SP   3    bf  110 -   113          0.860923091599          2.229194932550         -5.125615617573
      0.1553961625D+02 -0.1107775495D+00  0.7087426823D-01
      0.3599933586D+01 -0.1480262627D+00  0.3397528391D+00
      0.1013761750D+01  0.1130767015D+01  0.7271585773D+00
 Atom O15      Shell    46 SP   1    bf  114 -   117          0.860923091599          2.229194932550         -5.125615617573
      0.2700058226D+00  0.1000000000D+01  0.1000000000D+01
 Atom O15      Shell    47 D   1     bf  118 -   122          0.860923091599          2.229194932550         -5.125615617573
      0.8000000000D+00  0.1000000000D+01
 Atom O16      Shell    48 S   6     bf  123 -   123         -0.860923091599         -2.229194932550         -5.125615617573
      0.5484671660D+04  0.1831074430D-02
      0.8252349460D+03  0.1395017220D-01
      0.1880469580D+03  0.6844507810D-01
      0.5296450000D+02  0.2327143360D+00
      0.1689757040D+02  0.4701928980D+00
      0.5799635340D+01  0.3585208530D+00
 Atom O16      Shell    49 SP   3    bf  124 -   127         -0.860923091599         -2.229194932550         -5.125615617573
      0.1553961625D+02 -0.1107775495D+00  0.7087426823D-01
      0.3599933586D+01 -0.1480262627D+00  0.3397528391D+00
      0.1013761750D+01  0.1130767015D+01  0.7271585773D+00
 Atom O16      Shell    50 SP   1    bf  128 -   131         -0.860923091599         -2.229194932550         -5.125615617573
      0.2700058226D+00  0.1000000000D+01  0.1000000000D+01
 Atom O16      Shell    51 D   1     bf  132 -   136         -0.860923091599         -2.229194932550         -5.125615617573
      0.8000000000D+00  0.1000000000D+01
 Atom O17      Shell    52 S   6     bf  137 -   137         -2.126619140008          0.853121206975         -1.751054027350
      0.5484671660D+04  0.1831074430D-02
      0.8252349460D+03  0.1395017220D-01
      0.1880469580D+03  0.6844507810D-01
      0.5296450000D+02  0.2327143360D+00
      0.1689757040D+02  0.4701928980D+00
      0.5799635340D+01  0.3585208530D+00
 Atom O17      Shell    53 SP   3    bf  138 -   141         -2.126619140008          0.853121206975         -1.751054027350
      0.1553961625D+02 -0.1107775495D+00  0.7087426823D-01
      0.3599933586D+01 -0.1480262627D+00  0.3397528391D+00
      0.1013761750D+01  0.1130767015D+01  0.7271585773D+00
 Atom O17      Shell    54 SP   1    bf  142 -   145         -2.126619140008          0.853121206975         -1.751054027350
      0.2700058226D+00  0.1000000000D+01  0.1000000000D+01
 Atom O17      Shell    55 D   1     bf  146 -   150         -2.126619140008          0.853121206975         -1.751054027350
      0.8000000000D+00  0.1000000000D+01
 Atom O18      Shell    56 S   6     bf  151 -   151          2.126619140008         -0.853121206975         -1.751054027350
      0.5484671660D+04  0.1831074430D-02
      0.8252349460D+03  0.1395017220D-01
      0.1880469580D+03  0.6844507810D-01
      0.5296450000D+02  0.2327143360D+00
      0.1689757040D+02  0.4701928980D+00
      0.5799635340D+01  0.3585208530D+00
 Atom O18      Shell    57 SP   3    bf  152 -   155          2.126619140008         -0.853121206975         -1.751054027350
      0.1553961625D+02 -0.1107775495D+00  0.7087426823D-01
      0.3599933586D+01 -0.1480262627D+00  0.3397528391D+00
      0.1013761750D+01  0.1130767015D+01  0.7271585773D+00
 Atom O18      Shell    58 SP   1    bf  156 -   159          2.126619140008         -0.853121206975         -1.751054027350
      0.2700058226D+00  0.1000000000D+01  0.1000000000D+01
 Atom O18      Shell    59 D   1     bf  160 -   164          2.126619140008         -0.853121206975         -1.751054027350
      0.8000000000D+00  0.1000000000D+01
 There are    91 symmetry adapted cartesian basis functions of A   symmetry.
 There are    84 symmetry adapted cartesian basis functions of B   symmetry.
 There are    84 symmetry adapted basis functions of A   symmetry.
 There are    80 symmetry adapted basis functions of B   symmetry.
   164 basis functions,   347 primitive gaussians,   175 cartesian basis functions
    50 alpha electrons       50 beta electrons
       nuclear repulsion energy       865.4797158504 Hartrees.
 IExCor=  402 DFT=T Ex+Corr=B3LYP ExCW=0 ScaHFX=  0.200000
 ScaDFX=  0.800000  0.720000  1.000000  0.810000 ScalE2=  1.000000  1.000000
 IRadAn=      5 IRanWt=     -1 IRanGd=            0 ICorTp=0 IEmpDi=  4
 NAtoms=   18 NActive=   18 NUniq=   10 SFac= 3.24D+00 NAtFMM=   60 NAOKFM=F Big=F
 Integral buffers will be    131072 words long.
 Raffenetti 2 integral format.
 Two-electron integral symmetry is turned on.
 Leave Link  301 at Thu Oct 29 20:29:41 2020, MaxMem=   805306368 cpu:               0.0 elap:               0.1
 (Enter C:\G16W\l302.exe)
 NPDir=0 NMtPBC=     1 NCelOv=     1 NCel=       1 NClECP=     1 NCelD=      1
         NCelK=      1 NCelE2=     1 NClLst=     1 CellRange=     0.0.
 One-electron integrals computed using PRISM.
 One-electron integral symmetry used in STVInt
   2 Symmetry operations used in ECPInt.
 ECPInt:  NShTT=    1770 NPrTT=   11086 LenC2=    1701 LenP2D=    6842.
 LDataN:  DoStor=T MaxTD1= 5 Len=  102
 NBasis=   164 RedAO= T EigKep=  1.01D-02  NBF=    84    80
 NBsUse=   164 1.00D-06 EigRej= -1.00D+00 NBFU=    84    80
 Precomputing XC quadrature grid using
 IXCGrd= 4 IRadAn=           5 IRanWt=          -1 IRanGd=           0 AccXCQ= 0.00D+00.
 Generated NRdTot=       0 NPtTot=           0 NUsed=           0 NTot=          32
 NSgBfM=   174   174   174   174   174 MxSgAt=    18 MxSgA2=    18.
 Leave Link  302 at Thu Oct 29 20:29:44 2020, MaxMem=   805306368 cpu:               2.0 elap:               2.7
 (Enter C:\G16W\l303.exe)
 DipDrv:  MaxL=1.
 Leave Link  303 at Thu Oct 29 20:29:45 2020, MaxMem=   805306368 cpu:               0.0 elap:               0.2
 (Enter C:\G16W\l401.exe)
 ExpMin= 3.51D-02 ExpMax= 2.19D+04 ExpMxC= 3.30D+03 IAcc=3 IRadAn=         5 AccDes= 0.00D+00
 Harris functional with IExCor=  402 and IRadAn=       5 diagonalized for initial guess.
 HarFok:  IExCor=  402 AccDes= 0.00D+00 IRadAn=         5 IDoV= 1 UseB2=F ITyADJ=14
 ICtDFT=  3500011 ScaDFX=  1.000000  1.000000  1.000000  1.000000
 FoFCou: FMM=F IPFlag=           0 FMFlag=      100000 FMFlg1=           0
         NFxFlg=           0 DoJE=T BraDBF=F KetDBF=T FulRan=T
         wScrn=  0.000000 ICntrl=       500 IOpCl=  0 I1Cent=   200000004 NGrid=           0
         NMat0=    1 NMatS0=      1 NMatT0=    0 NMatD0=    1 NMtDS0=    0 NMtDT0=    0
 Petite list used in FoFCou.
 Harris En= -1070.94370810060    
 JPrj=0 DoOrth=F DoCkMO=F.
 Initial guess orbital symmetries:
       Occupied  (A) (B) (A) (B) (A) (A) (B) (A) (B) (A) (B) (A)
                 (B) (A) (A) (B) (A) (B) (B) (A) (B) (B) (A) (A)
                 (A) (B) (A) (B) (A) (B) (A) (A) (B) (A) (B) (B)
                 (A) (B) (A) (B) (B) (A) (A) (A) (B) (A) (B) (B)
                 (A) (B)
       Virtual   (A) (B) (B) (A) (A) (A) (B) (A) (B) (A) (B) (A)
                 (A) (B) (B) (B) (B) (A) (B) (A) (B) (B) (A) (A)
                 (A) (A) (A) (B) (A) (B) (B) (A) (B) (A) (A) (B)
                 (A) (B) (A) (B) (A) (B) (A) (B) (B) (A) (B) (B)
                 (A) (A) (B) (A) (B) (B) (A) (B) (A) (B) (A) (B)
                 (A) (B) (A) (B) (A) (B) (A) (B) (A) (B) (B) (A)
                 (B) (A) (A) (B) (B) (A) (B) (A) (B) (A) (B) (A)
                 (B) (B) (A) (A) (B) (A) (A) (B) (A) (B) (A) (B)
                 (A) (B) (A) (B) (A) (B) (A) (A) (B) (A) (A) (B)
                 (A) (B) (B) (A) (B) (A)
 The electronic state of the initial guess is 1-A.
 Leave Link  401 at Thu Oct 29 20:29:50 2020, MaxMem=   805306368 cpu:               3.0 elap:               2.7
 (Enter C:\G16W\l502.exe)
 Keep R1 ints in memory in symmetry-blocked form, NReq=137341860.
 FoFCou: FMM=F IPFlag=           0 FMFlag=           0 FMFlg1=           0
         NFxFlg=           0 DoJE=F BraDBF=F KetDBF=F FulRan=T
         wScrn=  0.000000 ICntrl=       600 IOpCl=  0 I1Cent=           0 NGrid=           0
         NMat0=    1 NMatS0=  13530 NMatT0=    0 NMatD0=    1 NMtDS0=    0 NMtDT0=    0
 Petite list used in FoFCou.
 Closed shell SCF:
 Using DIIS extrapolation, IDIIS=  1040.
 NGot=   805306368 LenX=   759438430 LenY=   759407364
 Requested convergence on RMS density matrix=1.00D-09 within  40 cycles.
 Requested convergence on MAX density matrix=1.00D-07.
 Requested convergence on             energy=1.00D-07.
 No special actions if energy rises.

 Cycle   1  Pass 1  IDiag  1:
 E= -1069.74676401544    
 DIIS: error= 5.78D-02 at cycle   1 NSaved=   1.
 NSaved= 1 IEnMin= 1 EnMin= -1069.74676401544     IErMin= 1 ErrMin= 5.78D-02
 ErrMax= 5.78D-02  0.00D+00 EMaxC= 1.00D-01 BMatC= 8.67D-01 BMatP= 8.67D-01
 IDIUse=3 WtCom= 4.22D-01 WtEn= 5.78D-01
 Coeff-Com:  0.100D+01
 Coeff-En:   0.100D+01
 Coeff:      0.100D+01
 Gap=     0.046 Goal=   None    Shift=    0.000
 GapD=    0.046 DampG=0.250 DampE=0.250 DampFc=0.1250 IDamp=-1.
 Damping current iteration by 1.25D-01
 RMSDP=9.84D-03 MaxDP=4.12D-01              OVMax= 2.49D-01

 Cycle   2  Pass 1  IDiag  1:
 E= -1069.89960330990     Delta-E=       -0.152839294458 Rises=F Damp=T
 DIIS: error= 3.93D-02 at cycle   2 NSaved=   2.
 NSaved= 2 IEnMin= 2 EnMin= -1069.89960330990     IErMin= 2 ErrMin= 3.93D-02
 ErrMax= 3.93D-02  0.00D+00 EMaxC= 1.00D-01 BMatC= 4.18D-01 BMatP= 8.67D-01
 IDIUse=3 WtCom= 6.07D-01 WtEn= 3.93D-01
 Coeff-Com: -0.222D+01 0.322D+01
 Coeff-En:   0.000D+00 0.100D+01
 Coeff:     -0.135D+01 0.235D+01
 Gap=     0.109 Goal=   None    Shift=    0.000
 RMSDP=4.00D-03 MaxDP=1.39D-01 DE=-1.53D-01 OVMax= 1.30D-01

 Cycle   3  Pass 1  IDiag  1:
 E= -1070.27658077491     Delta-E=       -0.376977465005 Rises=F Damp=F
 DIIS: error= 2.16D-02 at cycle   3 NSaved=   3.
 NSaved= 3 IEnMin= 3 EnMin= -1070.27658077491     IErMin= 3 ErrMin= 2.16D-02
 ErrMax= 2.16D-02  0.00D+00 EMaxC= 1.00D-01 BMatC= 1.26D-01 BMatP= 4.18D-01
 IDIUse=3 WtCom= 7.84D-01 WtEn= 2.16D-01
 EnCoef did   100 forward-backward iterations
 Coeff-Com: -0.497D-01 0.417D+00 0.633D+00
 Coeff-En:   0.105D+00 0.129D-02 0.894D+00
 Coeff:     -0.163D-01 0.327D+00 0.689D+00
 Gap=     0.146 Goal=   None    Shift=    0.000
 RMSDP=1.69D-03 MaxDP=4.92D-02 DE=-3.77D-01 OVMax= 4.27D-02

 Cycle   4  Pass 1  IDiag  1:
 E= -1070.35845951119     Delta-E=       -0.081878736282 Rises=F Damp=F
 DIIS: error= 4.27D-03 at cycle   4 NSaved=   4.
 NSaved= 4 IEnMin= 4 EnMin= -1070.35845951119     IErMin= 4 ErrMin= 4.27D-03
 ErrMax= 4.27D-03  0.00D+00 EMaxC= 1.00D-01 BMatC= 6.37D-03 BMatP= 1.26D-01
 IDIUse=3 WtCom= 9.57D-01 WtEn= 4.27D-02
 Coeff-Com:  0.101D+00-0.222D-01 0.340D+00 0.581D+00
 Coeff-En:   0.000D+00 0.000D+00 0.000D+00 0.100D+01
 Coeff:      0.965D-01-0.213D-01 0.326D+00 0.599D+00
 Gap=     0.150 Goal=   None    Shift=    0.000
 RMSDP=4.21D-04 MaxDP=1.25D-02 DE=-8.19D-02 OVMax= 1.38D-02

 Cycle   5  Pass 1  IDiag  1:
 E= -1070.36241842901     Delta-E=       -0.003958917821 Rises=F Damp=F
 DIIS: error= 1.81D-03 at cycle   5 NSaved=   5.
 NSaved= 5 IEnMin= 5 EnMin= -1070.36241842901     IErMin= 5 ErrMin= 1.81D-03
 ErrMax= 1.81D-03  0.00D+00 EMaxC= 1.00D-01 BMatC= 8.27D-04 BMatP= 6.37D-03
 IDIUse=3 WtCom= 9.82D-01 WtEn= 1.81D-02
 Coeff-Com:  0.548D-01-0.612D-01 0.108D+00 0.417D+00 0.482D+00
 Coeff-En:   0.000D+00 0.000D+00 0.000D+00 0.701D-01 0.930D+00
 Coeff:      0.538D-01-0.601D-01 0.106D+00 0.410D+00 0.490D+00
 Gap=     0.148 Goal=   None    Shift=    0.000
 RMSDP=1.40D-04 MaxDP=3.82D-03 DE=-3.96D-03 OVMax= 5.05D-03

 Cycle   6  Pass 1  IDiag  1:
 E= -1070.36302758416     Delta-E=       -0.000609155148 Rises=F Damp=F
 DIIS: error= 2.35D-04 at cycle   6 NSaved=   6.
 NSaved= 6 IEnMin= 6 EnMin= -1070.36302758416     IErMin= 6 ErrMin= 2.35D-04
 ErrMax= 2.35D-04  0.00D+00 EMaxC= 1.00D-01 BMatC= 1.46D-05 BMatP= 8.27D-04
 IDIUse=3 WtCom= 9.98D-01 WtEn= 2.35D-03
 Coeff-Com:  0.154D-01-0.183D-01 0.382D-01 0.176D+00 0.245D+00 0.544D+00
 Coeff-En:   0.000D+00 0.000D+00 0.000D+00 0.000D+00 0.000D+00 0.100D+01
 Coeff:      0.154D-01-0.182D-01 0.381D-01 0.175D+00 0.244D+00 0.545D+00
 Gap=     0.147 Goal=   None    Shift=    0.000
 RMSDP=2.10D-05 MaxDP=5.11D-04 DE=-6.09D-04 OVMax= 1.05D-03

 Cycle   7  Pass 1  IDiag  1:
 E= -1070.36303749373     Delta-E=       -0.000009909576 Rises=F Damp=F
 DIIS: error= 8.72D-05 at cycle   7 NSaved=   7.
 NSaved= 7 IEnMin= 7 EnMin= -1070.36303749373     IErMin= 7 ErrMin= 8.72D-05
 ErrMax= 8.72D-05  0.00D+00 EMaxC= 1.00D-01 BMatC= 1.65D-06 BMatP= 1.46D-05
 IDIUse=1 WtCom= 1.00D+00 WtEn= 0.00D+00
 Coeff-Com: -0.209D-02 0.187D-02 0.333D-02 0.330D-01 0.621D-01 0.296D+00
 Coeff-Com:  0.606D+00
 Coeff:     -0.209D-02 0.187D-02 0.333D-02 0.330D-01 0.621D-01 0.296D+00
 Coeff:      0.606D+00
 Gap=     0.148 Goal=   None    Shift=    0.000
 RMSDP=5.59D-06 MaxDP=1.30D-04 DE=-9.91D-06 OVMax= 1.53D-04

 Cycle   8  Pass 1  IDiag  1:
 E= -1070.36303865886     Delta-E=       -0.000001165127 Rises=F Damp=F
 DIIS: error= 1.01D-05 at cycle   8 NSaved=   8.
 NSaved= 8 IEnMin= 8 EnMin= -1070.36303865886     IErMin= 8 ErrMin= 1.01D-05
 ErrMax= 1.01D-05  0.00D+00 EMaxC= 1.00D-01 BMatC= 2.35D-08 BMatP= 1.65D-06
 IDIUse=1 WtCom= 1.00D+00 WtEn= 0.00D+00
 Coeff-Com: -0.117D-02 0.116D-02 0.581D-04 0.647D-02 0.136D-01 0.811D-01
 Coeff-Com:  0.206D+00 0.693D+00
 Coeff:     -0.117D-02 0.116D-02 0.581D-04 0.647D-02 0.136D-01 0.811D-01
 Coeff:      0.206D+00 0.693D+00
 Gap=     0.148 Goal=   None    Shift=    0.000
 RMSDP=9.50D-07 MaxDP=2.80D-05 DE=-1.17D-06 OVMax= 3.35D-05

 Cycle   9  Pass 1  IDiag  1:
 E= -1070.36303867456     Delta-E=       -0.000000015705 Rises=F Damp=F
 DIIS: error= 3.34D-06 at cycle   9 NSaved=   9.
 NSaved= 9 IEnMin= 9 EnMin= -1070.36303867456     IErMin= 9 ErrMin= 3.34D-06
 ErrMax= 3.34D-06  0.00D+00 EMaxC= 1.00D-01 BMatC= 3.46D-09 BMatP= 2.35D-08
 IDIUse=1 WtCom= 1.00D+00 WtEn= 0.00D+00
 Coeff-Com: -0.539D-03 0.593D-03-0.285D-03 0.383D-03 0.142D-02 0.167D-01
 Coeff-Com:  0.548D-01 0.316D+00 0.611D+00
 Coeff:     -0.539D-03 0.593D-03-0.285D-03 0.383D-03 0.142D-02 0.167D-01
 Coeff:      0.548D-01 0.316D+00 0.611D+00
 Gap=     0.148 Goal=   None    Shift=    0.000
 RMSDP=3.42D-07 MaxDP=9.51D-06 DE=-1.57D-08 OVMax= 1.28D-05

 Cycle  10  Pass 1  IDiag  1:
 E= -1070.36303867712     Delta-E=       -0.000000002552 Rises=F Damp=F
 DIIS: error= 1.27D-06 at cycle  10 NSaved=  10.
 NSaved=10 IEnMin=10 EnMin= -1070.36303867712     IErMin=10 ErrMin= 1.27D-06
 ErrMax= 1.27D-06  0.00D+00 EMaxC= 1.00D-01 BMatC= 4.08D-10 BMatP= 3.46D-09
 IDIUse=1 WtCom= 1.00D+00 WtEn= 0.00D+00
 Coeff-Com: -0.138D-03 0.162D-03-0.137D-03-0.455D-03-0.793D-03-0.819D-03
 Coeff-Com:  0.324D-02 0.688D-01 0.298D+00 0.632D+00
 Coeff:     -0.138D-03 0.162D-03-0.137D-03-0.455D-03-0.793D-03-0.819D-03
 Coeff:      0.324D-02 0.688D-01 0.298D+00 0.632D+00
 Gap=     0.148 Goal=   None    Shift=    0.000
 RMSDP=1.02D-07 MaxDP=2.65D-06 DE=-2.55D-09 OVMax= 2.98D-06

 Cycle  11  Pass 1  IDiag  1:
 E= -1070.36303867740     Delta-E=       -0.000000000282 Rises=F Damp=F
 DIIS: error= 4.04D-07 at cycle  11 NSaved=  11.
 NSaved=11 IEnMin=11 EnMin= -1070.36303867740     IErMin=11 ErrMin= 4.04D-07
 ErrMax= 4.04D-07  0.00D+00 EMaxC= 1.00D-01 BMatC= 3.71D-11 BMatP= 4.08D-10
 IDIUse=1 WtCom= 1.00D+00 WtEn= 0.00D+00
 Coeff-Com: -0.957D-05 0.124D-04-0.356D-04-0.243D-03-0.532D-03-0.221D-02
 Coeff-Com: -0.425D-02 0.290D-02 0.981D-01 0.320D+00 0.586D+00
 Coeff:     -0.957D-05 0.124D-04-0.356D-04-0.243D-03-0.532D-03-0.221D-02
 Coeff:     -0.425D-02 0.290D-02 0.981D-01 0.320D+00 0.586D+00
 Gap=     0.148 Goal=   None    Shift=    0.000
 RMSDP=3.76D-08 MaxDP=1.59D-06 DE=-2.82D-10 OVMax= 1.01D-06

 Cycle  12  Pass 1  IDiag  1:
 E= -1070.36303867744     Delta-E=       -0.000000000040 Rises=F Damp=F
 DIIS: error= 6.21D-08 at cycle  12 NSaved=  12.
 NSaved=12 IEnMin=12 EnMin= -1070.36303867744     IErMin=12 ErrMin= 6.21D-08
 ErrMax= 6.21D-08  0.00D+00 EMaxC= 1.00D-01 BMatC= 9.93D-13 BMatP= 3.71D-11
 IDIUse=1 WtCom= 1.00D+00 WtEn= 0.00D+00
 Coeff-Com:  0.607D-06-0.173D-06-0.615D-05-0.592D-04-0.125D-03-0.633D-03
 Coeff-Com: -0.139D-02-0.235D-02 0.154D-01 0.676D-01 0.197D+00 0.724D+00
 Coeff:      0.607D-06-0.173D-06-0.615D-05-0.592D-04-0.125D-03-0.633D-03
 Coeff:     -0.139D-02-0.235D-02 0.154D-01 0.676D-01 0.197D+00 0.724D+00
 Gap=     0.148 Goal=   None    Shift=    0.000
 RMSDP=5.81D-09 MaxDP=1.04D-07 DE=-3.98D-11 OVMax= 2.57D-07

 Cycle  13  Pass 1  IDiag  1:
 E= -1070.36303867742     Delta-E=        0.000000000018 Rises=F Damp=F
 DIIS: error= 6.46D-09 at cycle  13 NSaved=  13.
 NSaved=13 IEnMin=12 EnMin= -1070.36303867744     IErMin=13 ErrMin= 6.46D-09
 ErrMax= 6.46D-09  0.00D+00 EMaxC= 1.00D-01 BMatC= 1.79D-14 BMatP= 9.93D-13
 IDIUse=1 WtCom= 1.00D+00 WtEn= 0.00D+00
 Coeff-Com:  0.393D-06-0.478D-06 0.562D-06 0.130D-05 0.566D-05-0.263D-05
 Coeff-Com: -0.307D-04-0.454D-03-0.236D-02-0.383D-02 0.588D-02 0.888D-01
 Coeff-Com:  0.912D+00
 Coeff:      0.393D-06-0.478D-06 0.562D-06 0.130D-05 0.566D-05-0.263D-05
 Coeff:     -0.307D-04-0.454D-03-0.236D-02-0.383D-02 0.588D-02 0.888D-01
 Coeff:      0.912D+00
 Gap=     0.148 Goal=   None    Shift=    0.000
 RMSDP=1.18D-09 MaxDP=2.43D-08 DE= 1.75D-11 OVMax= 5.44D-08

 Cycle  14  Pass 1  IDiag  1:
 E= -1070.36303867744     Delta-E=       -0.000000000017 Rises=F Damp=F
 DIIS: error= 7.66D-10 at cycle  14 NSaved=  14.
 NSaved=14 IEnMin=12 EnMin= -1070.36303867744     IErMin=14 ErrMin= 7.66D-10
 ErrMax= 7.66D-10  0.00D+00 EMaxC= 1.00D-01 BMatC= 2.03D-16 BMatP= 1.79D-14
 IDIUse=1 WtCom= 1.00D+00 WtEn= 0.00D+00
 Coeff-Com:  0.171D-07-0.284D-07 0.180D-06 0.124D-05 0.317D-05 0.132D-04
 Coeff-Com:  0.249D-04-0.150D-04-0.655D-03-0.183D-02-0.273D-02-0.256D-02
 Coeff-Com:  0.139D+00 0.869D+00
 Coeff:      0.171D-07-0.284D-07 0.180D-06 0.124D-05 0.317D-05 0.132D-04
 Coeff:      0.249D-04-0.150D-04-0.655D-03-0.183D-02-0.273D-02-0.256D-02
 Coeff:      0.139D+00 0.869D+00
 Gap=     0.148 Goal=   None    Shift=    0.000
 RMSDP=1.72D-10 MaxDP=3.41D-09 DE=-1.66D-11 OVMax= 1.13D-08

 SCF Done:  E(RB3LYP) =  -1070.36303868     A.U. after   14 cycles
            NFock= 14  Conv=0.17D-09     -V/T= 1.9601
 KE= 1.114787550986D+03 PE=-4.345132481386D+03 EE= 1.294502175873D+03
 Leave Link  502 at Thu Oct 29 20:30:51 2020, MaxMem=   805306368 cpu:              61.0 elap:              60.9
 (Enter C:\G16W\l601.exe)
 Copying SCF densities to generalized density rwf, IOpCl= 0 IROHF=0.

 **********************************************************************

            Population analysis using the SCF Density.

 **********************************************************************

 Orbital symmetries:
       Occupied  (A) (B) (A) (B) (A) (A) (B) (B) (A) (A) (B) (A)
                 (B) (A) (B) (A) (B) (A) (B) (A) (B) (B) (A) (A)
                 (B) (A) (B) (A) (A) (B) (A) (A) (B) (A) (B) (B)
                 (A) (B) (A) (B) (A) (B) (A) (A) (B) (A) (B) (B)
                 (A) (B)
       Virtual   (A) (B) (B) (A) (A) (A) (B) (A) (B) (B) (A) (B)
                 (A) (B) (B) (A) (A) (B) (B) (A) (B) (A) (B) (A)
                 (A) (A) (B) (A) (A) (B) (A) (B) (A) (B) (B) (B)
                 (A) (A) (A) (B) (B) (B) (A) (B) (A) (A) (A) (B)
                 (B) (B) (A) (A) (B) (B) (A) (B) (A) (B) (A) (B)
                 (A) (B) (A) (B) (A) (B) (B) (A) (A) (B) (A) (B)
                 (B) (A) (A) (B) (A) (B) (B) (A) (B) (A) (A) (B)
                 (A) (A) (B) (B) (A) (B) (A) (B) (A) (B) (A) (B)
                 (A) (A) (B) (B) (A) (A) (B) (B) (A) (A) (B) (A)
                 (B) (A) (B) (A) (B) (A)
 The electronic state is 1-A.
 Alpha  occ. eigenvalues --  -89.05779 -19.26063 -19.26061 -19.20207 -19.20206
 Alpha  occ. eigenvalues --  -19.08297 -19.08293 -19.06198 -19.06197  -8.08473
 Alpha  occ. eigenvalues --   -6.04994  -6.04918  -6.04823  -1.12561  -1.12426
 Alpha  occ. eigenvalues --   -1.06634  -1.05962  -1.05754  -0.92300  -0.91192
 Alpha  occ. eigenvalues --   -0.89213  -0.66031  -0.66029  -0.65338  -0.65082
 Alpha  occ. eigenvalues --   -0.65000  -0.63094  -0.62575  -0.57901  -0.57776
 Alpha  occ. eigenvalues --   -0.52912  -0.52113  -0.50105  -0.46597  -0.45979
 Alpha  occ. eigenvalues --   -0.43625  -0.42779  -0.41529  -0.40887  -0.39685
 Alpha  occ. eigenvalues --   -0.37920  -0.37781  -0.30641  -0.28546  -0.28365
 Alpha  occ. eigenvalues --   -0.27031  -0.26157  -0.21720  -0.20974  -0.20508
 Alpha virt. eigenvalues --   -0.05753  -0.02859  -0.00838   0.02418   0.06323
 Alpha virt. eigenvalues --    0.07871   0.08665   0.11176   0.12740   0.14141
 Alpha virt. eigenvalues --    0.15831   0.16577   0.18317   0.18591   0.20584
 Alpha virt. eigenvalues --    0.21126   0.22470   0.25645   0.27485   0.40204
 Alpha virt. eigenvalues --    0.42969   0.48079   0.49059   0.64623   0.70272
 Alpha virt. eigenvalues --    0.72327   0.72517   0.74223   0.76823   0.76858
 Alpha virt. eigenvalues --    0.82558   0.82586   0.84304   0.85582   0.88515
 Alpha virt. eigenvalues --    0.89125   0.89916   0.90772   0.91280   0.92723
 Alpha virt. eigenvalues --    0.95120   0.97326   0.97490   0.98409   0.99280
 Alpha virt. eigenvalues --    1.01422   1.03794   1.05519   1.08386   1.09195
 Alpha virt. eigenvalues --    1.09195   1.11419   1.11495   1.14684   1.14732
 Alpha virt. eigenvalues --    1.18197   1.18450   1.23186   1.23255   1.26660
 Alpha virt. eigenvalues --    1.29734   1.32774   1.35661   1.42187   1.42545
 Alpha virt. eigenvalues --    1.52625   1.54341   1.54653   1.54757   1.59262
 Alpha virt. eigenvalues --    1.64259   1.64405   1.66057   1.67797   1.69898
 Alpha virt. eigenvalues --    1.70077   1.72133   1.72798   1.74763   1.75900
 Alpha virt. eigenvalues --    1.80071   1.82847   1.84363   1.85270   1.87277
 Alpha virt. eigenvalues --    1.87991   1.88404   1.89133   1.90125   1.90192
 Alpha virt. eigenvalues --    1.92541   1.93645   2.01197   2.02234   2.06486
 Alpha virt. eigenvalues --    2.10197   2.13104   2.19090   2.19690   2.23227
 Alpha virt. eigenvalues --    2.27077   2.28515   2.29712   2.35277   2.37203
 Alpha virt. eigenvalues --    2.47547   2.49433   2.52502   2.53482   2.57735
 Alpha virt. eigenvalues --    2.70587   2.84399   2.88926   6.73748
          Condensed to atoms (all electrons):
               1          2          3          4          5          6
     1  Zn  10.541979   0.121423  -0.009860  -0.014544   0.115640  -0.006784
     2  O    0.121423   8.224600   0.241812   0.236304  -0.001263  -0.000054
     3  H   -0.009860   0.241812   0.291690  -0.012940  -0.000323  -0.000011
     4  H   -0.014544   0.236304  -0.012940   0.295756   0.000008   0.000001
     5  O    0.115640  -0.001263  -0.000323   0.000008   8.335948   0.245592
     6  H   -0.006784  -0.000054  -0.000011   0.000001   0.245592   0.313209
     7  H   -0.024787   0.000049   0.000000   0.000007   0.175370  -0.010498
     8  O    0.121423  -0.001384   0.000049  -0.000147  -0.009617   0.000258
     9  H   -0.014544  -0.000147   0.000010   0.000039   0.009774  -0.000279
    10  H   -0.009860   0.000049   0.000000   0.000010  -0.000219   0.000012
    11  O    0.115640  -0.009617  -0.000219   0.009774   0.000020  -0.000003
    12  H   -0.024787   0.000175  -0.000084  -0.000132  -0.000046  -0.000006
    13  H   -0.006784   0.000258   0.000012  -0.000279  -0.000003   0.000000
    14  S   -0.026930  -0.000675   0.000070  -0.000057   0.001979   0.001520
    15  O    0.007502   0.000000   0.000003   0.000000  -0.000338   0.000357
    16  O    0.007502   0.000000   0.000002   0.000000  -0.000005   0.000002
    17  O    0.144240   0.000040  -0.000038  -0.000013  -0.029522   0.000454
    18  O    0.144240  -0.003990   0.002141  -0.000190  -0.001783   0.000013
               7          8          9         10         11         12
     1  Zn  -0.024787   0.121423  -0.014544  -0.009860   0.115640  -0.024787
     2  O    0.000049  -0.001384  -0.000147   0.000049  -0.009617   0.000175
     3  H    0.000000   0.000049   0.000010   0.000000  -0.000219  -0.000084
     4  H    0.000007  -0.000147   0.000039   0.000010   0.009774  -0.000132
     5  O    0.175370  -0.009617   0.009774  -0.000219   0.000020  -0.000046
     6  H   -0.010498   0.000258  -0.000279   0.000012  -0.000003  -0.000006
     7  H    0.309177   0.000175  -0.000132  -0.000084  -0.000046   0.000118
     8  O    0.000175   8.224600   0.236304   0.241812  -0.001263   0.000049
     9  H   -0.000132   0.236304   0.295756  -0.012940   0.000008   0.000007
    10  H   -0.000084   0.241812  -0.012940   0.291690  -0.000323   0.000000
    11  O   -0.000046  -0.001263   0.000008  -0.000323   8.335948   0.175370
    12  H    0.000118   0.000049   0.000007   0.000000   0.175370   0.309177
    13  H   -0.000006  -0.000054   0.000001  -0.000011   0.245592  -0.010498
    14  S    0.008489  -0.000675  -0.000057   0.000070   0.001979   0.008489
    15  O    0.000705   0.000000   0.000000   0.000002  -0.000005   0.000165
    16  O    0.000165   0.000000   0.000000   0.000003  -0.000338   0.000705
    17  O    0.067794  -0.003990  -0.000190   0.002141  -0.001783  -0.001582
    18  O   -0.001582   0.000040  -0.000013  -0.000038  -0.029522   0.067794
              13         14         15         16         17         18
     1  Zn  -0.006784  -0.026930   0.007502   0.007502   0.144240   0.144240
     2  O    0.000258  -0.000675   0.000000   0.000000   0.000040  -0.003990
     3  H    0.000012   0.000070   0.000003   0.000002  -0.000038   0.002141
     4  H   -0.000279  -0.000057   0.000000   0.000000  -0.000013  -0.000190
     5  O   -0.000003   0.001979  -0.000338  -0.000005  -0.029522  -0.001783
     6  H    0.000000   0.001520   0.000357   0.000002   0.000454   0.000013
     7  H   -0.000006   0.008489   0.000705   0.000165   0.067794  -0.001582
     8  O   -0.000054  -0.000675   0.000000   0.000000  -0.003990   0.000040
     9  H    0.000001  -0.000057   0.000000   0.000000  -0.000190  -0.000013
    10  H   -0.000011   0.000070   0.000002   0.000003   0.002141  -0.000038
    11  O    0.245592   0.001979  -0.000005  -0.000338  -0.001783  -0.029522
    12  H   -0.010498   0.008489   0.000165   0.000705  -0.001582   0.067794
    13  H    0.313209   0.001520   0.000002   0.000357   0.000013   0.000454
    14  S    0.001520  13.347548   0.470446   0.470446   0.203905   0.203905
    15  O    0.000002   0.470446   8.228489  -0.045034  -0.049621  -0.045723
    16  O    0.000357   0.470446  -0.045034   8.228489  -0.045723  -0.049621
    17  O    0.000013   0.203905  -0.049621  -0.045723   8.530817  -0.063634
    18  O    0.000454   0.203905  -0.045723  -0.049621  -0.063634   8.530817
 Mulliken charges:
               1
     1  Zn   0.819291
     2  O   -0.807581
     3  H    0.487685
     4  H    0.486404
     5  O   -0.841212
     6  H    0.456219
     7  H    0.475086
     8  O   -0.807581
     9  H    0.486404
    10  H    0.487685
    11  O   -0.841212
    12  H    0.475086
    13  H    0.456219
    14  S    1.308028
    15  O   -0.566952
    16  O   -0.566952
    17  O   -0.753309
    18  O   -0.753309
 Sum of Mulliken charges =   0.00000
 Mulliken charges with hydrogens summed into heavy atoms:
               1
     1  Zn   0.819291
     2  O    0.166508
     5  O    0.090093
     8  O    0.166508
    11  O    0.090093
    14  S    1.308028
    15  O   -0.566952
    16  O   -0.566952
    17  O   -0.753309
    18  O   -0.753309
 Electronic spatial extent (au):  <R**2>=           2064.3631
 Charge=              0.0000 electrons
 Dipole moment (field-independent basis, Debye):
    X=              0.0000    Y=              0.0000    Z=             13.1592  Tot=             13.1592
 Quadrupole moment (field-independent basis, Debye-Ang):
   XX=            -58.9948   YY=            -61.2997   ZZ=            -89.2935
   XY=             -1.1824   XZ=              0.0000   YZ=              0.0000
 Traceless Quadrupole moment (field-independent basis, Debye-Ang):
   XX=             10.8678   YY=              8.5630   ZZ=            -19.4308
   XY=             -1.1824   XZ=              0.0000   YZ=              0.0000
 Octapole moment (field-independent basis, Debye-Ang**2):
  XXX=              0.0000  YYY=              0.0000  ZZZ=            114.0351  XYY=              0.0000
  XXY=              0.0000  XXZ=             49.4523  XZZ=              0.0000  YZZ=              0.0000
  YYZ=             37.3983  XYZ=             -6.6556
 Hexadecapole moment (field-independent basis, Debye-Ang**3):
 XXXX=           -284.9412 YYYY=           -511.7873 ZZZZ=          -1577.3584 XXXY=             12.0745
 XXXZ=              0.0000 YYYX=             68.6604 YYYZ=              0.0000 ZZZX=              0.0000
 ZZZY=              0.0000 XXYY=           -127.1819 XXZZ=           -279.8205 YYZZ=           -352.9099
 XXYZ=              0.0000 YYXZ=              0.0000 ZZXY=            -39.0726
 N-N= 8.654797158504D+02 E-N=-4.345132481208D+03  KE= 1.114787550986D+03
 Symmetry A    KE= 6.903907820459D+02
 Symmetry B    KE= 4.243967689400D+02
 No NMR shielding tensors so no spin-rotation constants.
 Leave Link  601 at Thu Oct 29 20:30:53 2020, MaxMem=   805306368 cpu:               1.0 elap:               1.1
 (Enter C:\G16W\l701.exe)
 ... and contract with generalized density number  0.
 Compute integral first derivatives.
   1 Symmetry operations used in ECPInt.
 ECPInt:  NShTT=    1770 NPrTT=   11086 LenC2=    1701 LenP2D=    6842.
 LDataN:  DoStor=T MaxTD1= 6 Len=  172
 Leave Link  701 at Thu Oct 29 20:30:54 2020, MaxMem=   805306368 cpu:               1.0 elap:               0.6
 (Enter C:\G16W\l702.exe)
 L702 exits ... SP integral derivatives will be done elsewhere.
 Leave Link  702 at Thu Oct 29 20:30:54 2020, MaxMem=   805306368 cpu:               0.0 elap:               0.1
 (Enter C:\G16W\l703.exe)
 Integral derivatives from FoFJK, PRISM(SPDF).
 Compute integral first derivatives, UseDBF=F ICtDFT=           0.
 Calling FoFJK, ICntrl=      2127 FMM=F ISym2X=0 I1Cent= 0 IOpClX= 0 NMat=1 NMatS=1 NMatT=0.
 FoFJK:  IHMeth= 1 ICntrl=    2127 DoSepK=F KAlg= 0 I1Cent=           0 FoldK=F
 IRaf=         0 NMat=       1 IRICut=       1 DoRegI=T DoRafI=F ISym2E= 0 IDoP0=0 IntGTp=1.
 FoFCou: FMM=F IPFlag=           0 FMFlag=      100000 FMFlg1=         800
         NFxFlg=           0 DoJE=F BraDBF=F KetDBF=F FulRan=T
         wScrn=  0.000000 ICntrl=      2127 IOpCl=  0 I1Cent=           0 NGrid=           0
         NMat0=    1 NMatS0=      1 NMatT0=    0 NMatD0=    1 NMtDS0=    0 NMtDT0=    0
 Symmetry not used in FoFCou.
 Leave Link  703 at Thu Oct 29 20:31:06 2020, MaxMem=   805306368 cpu:              11.0 elap:              11.8
 (Enter C:\G16W\l716.exe)
 Dipole        = 0.00000000D+00-8.88178420D-15 5.17720890D+00
 ***** Axes restored to original set *****
 -------------------------------------------------------------------
 Center     Atomic                   Forces (Hartrees/Bohr)
 Number     Number              X              Y              Z
 -------------------------------------------------------------------
      1       30           0.000000000    0.000000000   -0.062260167
      2        8           0.003735330    0.004129251    0.004863073
      3        1          -0.000627090    0.001150712   -0.001388527
      4        1           0.002244690    0.000867715    0.000849755
      5        8           0.003988661   -0.003402518    0.003393492
      6        1           0.000973977   -0.000051706   -0.000730221
      7        1           0.005520665   -0.001410826   -0.005379545
      8        8          -0.003735330   -0.004129251    0.004863073
      9        1          -0.002244690   -0.000867715    0.000849755
     10        1           0.000627090   -0.001150712   -0.001388527
     11        8          -0.003988661    0.003402518    0.003393492
     12        1          -0.005520665    0.001410826   -0.005379545
     13        1          -0.000973977    0.000051706   -0.000730221
     14       16           0.000000000    0.000000000    0.031378592
     15        8          -0.001271121    0.001603353   -0.003467928
     16        8           0.001271121   -0.001603353   -0.003467928
     17        8          -0.001880704    0.005080409    0.017300688
     18        8           0.001880704   -0.005080409    0.017300688
 -------------------------------------------------------------------
 Cartesian Forces:  Max     0.062260167 RMS     0.010438627
 Leave Link  716 at Thu Oct 29 20:31:07 2020, MaxMem=   805306368 cpu:               0.0 elap:               0.1
 (Enter C:\G16W\l103.exe)

 GradGradGradGradGradGradGradGradGradGradGradGradGradGradGradGradGradGrad
 Berny optimization.
 FormGI is forming the generalized inverse of G from B-inverse, IUseBI=4.
 Internal  Forces:  Max     0.023732210 RMS     0.007589324
 Search for a local minimum.
 Step number   1 out of a maximum of  108
 All quantities printed in internal units (Hartrees-Bohrs-Radians)
 RMS Force = .75893D-02 SwitMx=.10000D-02 MixMth= 1
 Mixed Optimization -- RFO/linear search
 Second derivative matrix not updated -- first step.
 ITU=  0
     Eigenvalues ---    0.00635   0.00729   0.01026   0.01202   0.01584
     Eigenvalues ---    0.02234   0.02299   0.02510   0.03409   0.03761
     Eigenvalues ---    0.04366   0.04432   0.04643   0.04900   0.05132
     Eigenvalues ---    0.05143   0.05884   0.06071   0.06698   0.08335
     Eigenvalues ---    0.08633   0.09306   0.09632   0.10534   0.10975
     Eigenvalues ---    0.12027   0.12382   0.13093   0.14671   0.15383
     Eigenvalues ---    0.16306   0.16502   0.17679   0.17942   0.18803
     Eigenvalues ---    0.20542   0.40843   0.46216   0.47074   0.48141
     Eigenvalues ---    0.49100   0.50845   0.52363   0.52363   0.52987
     Eigenvalues ---    0.52987   0.88401   0.88401
 RFO step:  Lambda=-4.69383281D-02 EMin= 6.34871225D-03
 Linear search not attempted -- first point.
 Maximum step size (   0.300) exceeded in Quadratic search.
    -- Step size scaled by   0.625
 Iteration  1 RMS(Cart)=  0.08180418 RMS(Int)=  0.00265039
 Iteration  2 RMS(Cart)=  0.00245813 RMS(Int)=  0.00129887
 Iteration  3 RMS(Cart)=  0.00001932 RMS(Int)=  0.00129885
 Iteration  4 RMS(Cart)=  0.00000010 RMS(Int)=  0.00129885
 ITry= 1 IFail=0 DXMaxC= 3.59D-01 DCOld= 1.00D+10 DXMaxT= 3.00D-01 DXLimC= 3.00D+00 Rises=F
 ClnCor:  largest displacement from symmetrization is 1.54D-01 for atom    16.
          Exceeds limit of 1.00D-01 so symmetrization was rejected.
 Variable       Old X    -DE/DX   Delta X   Delta X   Delta X     New X
                                 (Linear)    (Quad)   (Total)
    R1        3.86041   0.01222   0.00000   0.03878   0.03862   3.89902
    R2        4.27668   0.00003   0.00000  -0.00383  -0.00442   4.27226
    R3        4.49247  -0.01270   0.00000  -0.08026  -0.08231   4.41016
    R4        3.86041   0.01041   0.00000   0.03525   0.03540   3.89580
    R5        4.27668  -0.00457   0.00000  -0.01576  -0.01835   4.25833
    R6        1.84254   0.00165   0.00000   0.00181   0.00181   1.84434
    R7        1.84405   0.00107   0.00000   0.00182   0.00173   1.84578
    R8        4.43885  -0.00480   0.00000  -0.02751  -0.02738   4.41147
    R9        1.83666  -0.00004   0.00000  -0.00005  -0.00005   1.83662
   R10        1.88711  -0.00819   0.00000  -0.01154  -0.01084   1.87627
   R11        4.43885  -0.00168   0.00000  -0.01166  -0.01180   4.42705
   R12        3.59782  -0.01982   0.00000  -0.14783  -0.14538   3.45244
   R13        1.84405   0.00199   0.00000   0.00238   0.00215   1.84620
   R14        1.84254   0.00165   0.00000   0.00181   0.00181   1.84434
   R15        1.88711  -0.01534   0.00000  -0.02287  -0.02110   1.86602
   R16        1.83666  -0.00004   0.00000  -0.00005  -0.00005   1.83662
   R17        3.59782  -0.01655   0.00000  -0.13138  -0.12840   3.46942
   R18        2.77379   0.00346   0.00000   0.00232   0.00232   2.77611
   R19        2.77379   0.00346   0.00000   0.00232   0.00232   2.77611
   R20        3.01933  -0.01778   0.00000  -0.01548  -0.01597   3.00337
   R21        3.01933  -0.01313   0.00000  -0.01143  -0.01099   3.00834
    A1        1.86654  -0.00026   0.00000  -0.00826  -0.00801   1.85853
    A2        2.24551   0.00008   0.00000   0.00071   0.00044   2.24595
    A3        1.93800   0.00115   0.00000  -0.00942  -0.00936   1.92865
    A4        1.43046  -0.00478   0.00000  -0.01643  -0.01602   1.41445
    A5        1.43046  -0.00343   0.00000  -0.01194  -0.01207   1.41839
    A6        2.87304   0.00739   0.00000   0.04074   0.03978   2.91282
    A7        1.48795  -0.00552   0.00000  -0.01586  -0.01525   1.47270
    A8        2.46608   0.00863   0.00000   0.03740   0.03602   2.50211
    A9        1.86654  -0.00017   0.00000  -0.00798  -0.00782   1.85872
   A10        1.86902  -0.00236   0.00000  -0.00485  -0.00491   1.86411
   A11        1.76787   0.00391   0.00000   0.00919   0.00895   1.77682
   A12        1.83009   0.00152   0.00000   0.00758   0.00724   1.83733
   A13        1.91150  -0.00450   0.00000  -0.00881  -0.00940   1.90209
   A14        2.08733  -0.00360   0.00000  -0.01142  -0.01171   2.07562
   A15        1.10941   0.00413   0.00000   0.01416   0.01445   1.12386
   A16        1.82934   0.00643   0.00000   0.02202   0.02060   1.84994
   A17        2.71398   0.00069   0.00000   0.00998   0.00976   2.72375
   A18        1.73956  -0.00710   0.00000  -0.03162  -0.03010   1.70946
   A19        1.14128  -0.02197   0.00000  -0.07249  -0.07129   1.06999
   A20        2.38461  -0.01531   0.00000  -0.03482  -0.03387   2.35075
   A21        1.76787   0.00241   0.00000   0.00678   0.00707   1.77494
[...]
 0.162241,0.1655231,-0.5891309,0.1876759,-0.1858235,0.2071917,-0.649736
 1,0.5179806,-0.092275,0.1874477,-0.1700806,0.3787262,-0.2183464,0.2154
 989,-0.1648699,0.427302,0.3920155,-0.0396909,0.0526183,-0.053629,0.274
 3138,-0.0404104,0.0490801,-0.0935892,0.268987,2.3028823,-0.0441022,0.0
 406904,0.0143819,2.0066928,0.0563602,0.1876813,-0.069124,2.6675334,-1.
 2913825,0.298489,0.0927128,0.2816717,-0.7033464,0.0164691,0.1239589,-0
 .0212879,-0.9418668,-0.7049582,0.0522244,0.2783033,0.0463702,-0.577476
 9,-0.1308583,0.1620833,-0.0729617,-1.1441839,-0.7224819,-0.0430032,0.0
 262952,-0.0613685,-1.1124188,0.3231759,0.0169511,0.36357,-1.1868322,-1
 .0793528,-0.177121,-0.388546,-0.2383654,-0.9568501,-0.269719,-0.393207
 2,-0.2415982,-1.3347036|Polar=60.3839019,-2.7498513,56.962691,-1.59521
 11,0.4247083,72.0435286|Quadrupole=4.4458542,7.5456462,-11.9915004,1.0
 245714,-0.909873,-0.1005612|PG=C01 [X(H8O8S1Zn1)]|NImag=0||0.12087949,
 0.01716177,0.10516229,-0.01581131,0.00713477,0.14465086,-0.01001885,-0
 .00629549,-0.00324278,0.46717221,0.00165093,-0.02611101,-0.00425861,0.
 06647092,0.10678693,-0.00263999,-0.00726269,-0.01654852,0.12041872,-0.
 10392988,0.55571492,0.00306189,-0.00592137,0.00209543,-0.07776505,-0.0
 4809254,0.10502893,0.07560490,-0.00801037,-0.01558839,0.00622865,-0.03
 015256,-0.05718314,0.12134096,0.03603861,0.07218127,0.00097332,0.00361
 188,0.01342839,0.05243873,0.11063735,-0.36774615,-0.06583672,-0.127559
 22,0.37531488,-0.00128552,-0.00133477,-0.00151640,-0.38230635,-0.01982
 903,-0.22028002,0.00763220,-0.00118221,0.00943691,0.37738413,-0.007385
 43,0.00085550,-0.00384000,-0.02967373,-0.01999316,0.00229672,0.0152279
 6,0.00084394,0.00663028,0.02152626,0.01742655,-0.00268781,-0.00317381,
 -0.00125468,-0.16699000,0.01053144,-0.15176322,-0.04293315,-0.00298661
 ,-0.01758570,0.21038048,-0.00494497,0.17201323,-0.02311449,0.00063376,
 -0.00157805,-0.00605541,-0.00283277,-0.00491427,0.00131131,0.00156391,
 -0.00018806,-0.00020172,-0.00138309,0.00104775,0.07578900,0.00762658,-
 0.01202239,0.00090773,-0.00239463,0.00163961,-0.00145283,0.00179293,-0
 .00020013,-0.00015663,-0.00035625,-0.00054689,0.00023363,-0.07204680,0
 .52697343,0.00504730,-0.00374286,-0.01666311,-0.00541663,-0.00131093,0
 .00160027,-0.00008980,-0.00111598,-0.00389380,-0.00039952,-0.00097786,
 0.00040099,-0.02909705,0.10735226,0.43140601,-0.00032513,0.00770362,0.
 00277040,0.00218639,-0.00090794,0.00120480,-0.00186114,0.00009562,0.00
 079841,0.00034208,0.00003521,-0.00067436,-0.01828560,0.05036748,0.0144
 1877,0.01824016,0.00202415,-0.00253121,-0.00051321,-0.00067790,-0.0009
 5482,-0.00035804,-0.00041612,0.00062242,0.00001695,-0.00016668,-0.0001
 6717,0.00011310,0.05751318,-0.44750154,-0.15064268,-0.05806993,0.45058
 088,0.00185614,0.00118279,0.00209711,0.00048550,-0.00052756,-0.0010499
 4,0.00065762,0.00023718,0.00103551,0.00003622,0.00008237,-0.00014336,0
 .01136339,-0.10787248,-0.09120532,-0.01776523,0.14832807,0.09726413,-0
 .00174735,0.00242291,-0.01226572,-0.00124172,-0.00025316,0.00101321,-0
 .00044806,-0.00079903,-0.00164830,-0.00024954,-0.00026899,-0.00005049,
 -0.02814785,0.00767679,-0.00310619,0.00039860,0.00008757,0.00453477,0.
 04831997,0.00300688,0.00158234,0.00433813,0.00014302,-0.00024634,-0.00
 000647,-0.00060785,0.00020661,-0.00012851,-0.00012451,0.00005602,0.000
 05723,0.00698064,-0.06422407,0.04626830,0.00018191,0.00120705,-0.04478
 268,-0.01330848,0.07345304,-0.02007564,0.00838056,0.00788619,0.0034470
 2,0.00025212,-0.00145213,-0.00127905,0.00079914,0.00318021,0.00014040,
 0.00056654,-0.00010166,0.01296531,-0.00359152,-0.27437796,0.00068100,0
 .00110568,-0.00638727,0.01200843,-0.00482930,0.26716375,-0.01845365,-0
 .00509055,0.01245797,0.00037819,-0.00169502,0.00008185,-0.00020125,0.0
 0033713,-0.00016655,0.00006734,0.00043949,0.00024173,0.00234326,0.0039
 4401,-0.00407396,0.00023682,0.00009670,-0.00090871,-0.00101139,0.00070
 059,0.00326188,0.43165530,-0.00590607,-0.02060247,0.01109041,-0.001604
 79,-0.00202478,0.00063939,0.00007939,-0.00007045,-0.00082445,0.0002217
 4,-0.00029232,0.00036874,0.00494693,-0.00951256,0.01247479,0.00026638,
 0.00003641,0.00145611,0.00164257,-0.00209674,-0.00500468,-0.12388694,0
 .57852765,0.00721335,0.00648190,-0.01956117,0.00007336,0.00048866,0.00
 196527,-0.00023332,-0.00074032,-0.00090531,0.00014211,0.00017112,-0.00
 048658,-0.00312148,0.00844697,0.00125203,-0.00039990,0.00061543,-0.002
 66834,0.00014719,-0.00004881,0.00077062,0.11791323,0.09912801,0.149396
 50,-0.01119943,-0.00554713,0.00595911,0.00008441,0.00054970,-0.0001510
 7,0.00008796,-0.00009196,0.00016005,-0.00010335,-0.00004835,-0.0000867
 3,-0.00358117,0.00134505,-0.00025999,-0.00025185,0.00053649,-0.0001543
 4,-0.00029974,-0.00000811,-0.00106866,-0.36308168,0.16182615,-0.102578
 40,0.37509756,-0.00968593,0.00699208,-0.00081371,0.00087569,-0.0004447
 0,0.00033213,-0.00029610,-0.00001345,0.00007002,0.00005633,0.00043118,
 -0.00015417,0.00227706,-0.00126566,-0.00809707,0.00030701,-0.00077559,
 -0.00066997,-0.00082645,0.00267727,0.00661873,0.11600990,-0.11475803,0
 .02391443,-0.15238046,0.12629036,0.01089718,0.00060527,0.00220338,-0.0
 0038769,-0.00007700,-0.00103703,0.00031795,0.00025008,0.00041202,-0.00
 015888,-0.00012399,0.00024531,-0.00053915,-0.00318449,-0.00247834,-0.0
 0092957,-0.00093040,0.00299222,0.00064761,-0.00005371,-0.00313895,-0.1
 2602889,0.04597175,-0.05327885,0.10162495,-0.03270499,0.04903894,0.001
 82217,-0.00543933,-0.00266160,-0.00033550,-0.00032740,0.00043213,-0.00
 001589,-0.00018934,-0.00030144,0.00010035,-0.00005115,-0.00002021,0.00
 013027,0.00005483,-0.00039405,-0.00004425,0.00005233,0.00000333,0.0003
 9499,0.00028339,-0.00045303,-0.05169583,-0.03476729,-0.02297384,0.0029
 5577,0.04235694,0.01673996,0.04810577,-0.00314227,-0.00625713,0.001181
 77,0.00013698,0.00040840,0.00014740,-0.00003709,-0.00016775,-0.0000395
 9,-0.00004985,-0.00007632,-0.00006443,-0.00007029,0.00044038,0.0006211
 9,0.00007759,-0.00003003,-0.00008152,0.00020157,-0.00036350,0.00028610
 ,0.01165935,-0.43244435,-0.14064394,-0.00652577,-0.01714161,-0.0100201
 6,-0.00345305,0.45497137,0.00097268,0.00593701,0.00242676,0.00014534,0
 .00009271,-0.00042215,0.00001767,0.00021384,0.00035827,0.00000999,0.00
 002973,0.00005165,-0.00060915,0.00088769,-0.00261688,-0.00009372,0.000
 00947,0.00011467,-0.00044052,0.00061938,0.00079269,-0.00717781,-0.1695
 7318,-0.06907433,-0.00214235,0.01311075,0.00395370,0.00985001,0.150765
 83,0.06388866,-0.02582180,-0.00137631,-0.00147475,0.00064162,0.0045128
 2,0.00167002,-0.00061022,-0.00061577,-0.00043227,-0.00106621,0.0003071
 5,-0.00024953,-0.00104274,0.00053652,0.00045156,0.00020810,-0.00017209
 ,-0.00019705,0.00068681,-0.00020151,-0.00043481,-0.00259734,-0.0011409
 8,0.00173322,0.00046272,-0.00031663,-0.00007142,-0.00006842,0.00072544
 ,-0.00033356,0.08174890,0.00663369,-0.01421358,0.00231577,0.00386694,-
 0.00601801,-0.00274046,-0.00071302,0.00150318,0.00006545,0.00010022,0.
 00151554,0.00183364,0.00076967,0.00071615,-0.00089306,-0.00048822,0.00
 003910,0.00002698,-0.00060950,-0.00020032,0.00093097,-0.00190472,0.001
 69501,-0.00032897,0.00005146,-0.00096568,0.00056899,0.00109447,-0.0000
 0048,-0.00006593,-0.07717167,0.59325468,-0.00107705,0.00380175,-0.0116
 4569,0.00153034,-0.00345592,0.00303125,-0.00052770,-0.00068976,-0.0035
 3651,-0.00000195,0.00152703,0.00007913,-0.00056461,-0.00038465,0.00260
 072,-0.00000308,-0.00001981,-0.00030215,0.00126340,-0.00009307,-0.0027
 4884,0.00247862,-0.00061478,0.00097476,-0.00007647,0.00096534,-0.00081
 111,-0.00050436,-0.00004195,-0.00042997,-0.01186797,-0.00477293,0.4086
 2951,-0.01429382,-0.00593159,0.01539335,-0.00031080,-0.00084350,-0.002
 70142,0.00036947,0.00193419,0.00224266,0.00066186,-0.00036864,0.000101
 04,0.00095979,0.00010989,-0.00149153,-0.00016227,0.00008462,0.00023465
 ,-0.00083182,0.00003066,0.00149068,-0.00074714,0.00077702,-0.00081643,
 -0.00018278,-0.00055561,0.00052901,0.00027001,-0.00014535,0.00021133,-
 0.02295420,0.00474228,0.00491930,0.03466844,-0.00657340,0.00988638,-0.
 00407972,-0.00089909,-0.00113439,0.00238604,0.00146720,-0.00178169,-0.
 00198650,0.00019337,0.00048625,-0.00105668,-0.00053673,-0.00059747,0.0
 0143064,0.00023215,-0.00005614,-0.00012330,0.00080954,0.00013536,-0.00
 160207,0.00116392,-0.00048132,0.00018534,-0.00012563,0.00062973,-0.000
 39268,-0.00036782,-0.00002629,-0.00004182,0.01361510,-0.15697341,0.119
 32338,0.00050341,0.18255706,0.01351157,-0.00258127,0.00601242,-0.00228
 834,0.00213431,-0.00182992,0.00147977,-0.00041713,0.00356001,0.0005240
 9,-0.00159177,-0.00127281,0.00043429,0.00035267,-0.00211003,-0.0000327
 9,0.00001174,0.00025793,-0.00105427,-0.00007830,0.00217465,-0.00105256
 ,0.00024560,-0.00038496,0.00009966,-0.00045842,0.00036852,0.00030688,0
 .00000678,0.00013224,-0.00379786,0.17436154,-0.27705924,-0.01524004,-0
 .14943321,0.26799548,-0.00297895,0.00901765,0.00394715,-0.00079853,0.0
 0147900,-0.00004087,0.00009902,-0.00002591,0.00049381,-0.00015410,-0.0
 0015616,0.00002451,0.00026669,-0.00032327,-0.00037262,-0.00002391,0.00
 003375,0.00008208,-0.00028236,0.00014683,0.00037722,0.00065039,-0.0004
 6963,-0.00043546,-0.00017708,0.00019296,-0.00005375,-0.00064356,-0.000
 23989,0.00045589,-0.02100816,0.05044105,0.02526309,0.00172951,0.000043
 81,-0.00012840,0.02114285,0.00394932,-0.00077812,-0.00084882,-0.000127
 91,0.00091623,0.00030950,0.00001522,-0.00019580,-0.00006745,-0.0000003
 0,-0.00024398,-0.00012620,-0.00030821,-0.00001980,0.00015921,0.0000603
 0,-0.00003044,-0.00003561,0.00016071,-0.00002356,-0.00010439,-0.000229
 42,-0.00057695,0.00038427,0.00002051,0.00007719,-0.00012595,-0.0003679
 1,0.00025996,0.00000735,0.05298263,-0.41269006,-0.13060503,0.00401290,
 -0.02744087,-0.01715634,-0.05881999,0.44084636,0.00000159,-0.00182845,
 0.00117966,0.00045894,-0.00069889,-0.00016046,0.00010364,0.00000390,-0
 .00000193,0.00002266,0.00044913,0.00024559,0.00016913,0.00006865,-0.00
 043420,-0.00005725,-0.00000300,0.00002489,-0.00020440,0.00006856,0.000
 40815,-0.00049909,0.00061654,-0.00041048,0.00001297,-0.00024823,0.0001
 9651,0.00052071,-0.00006170,0.00020643,0.03365584,-0.18342147,-0.11481
 537,-0.00416588,0.03641792,0.01553141,-0.02920088,0.14822710,0.1020145
 8,0.03497958,0.01275502,-0.00425024,-0.00388466,0.00308417,0.01443953,
 0.00151560,-0.00718454,-0.01443382,-0.00033641,-0.00068520,-0.00026298
 ,-0.00437612,0.00236429,-0.03650345,0.00127710,0.00128358,0.00078084,-
 0.02379525,0.00428806,0.05428781,-0.00246769,0.00196269,-0.00150384,0.
 00099870,-0.00321032,0.00257786,0.00038277,-0.00028701,0.00026380,-0.0
 0056058,-0.00899725,0.00845588,-0.01139184,0.00658137,-0.01345531,0.00
 173819,0.00174665,-0.00111253,0.76860130,0.01176955,0.05050695,0.01549
 502,-0.00025347,0.00053111,0.00986253,-0.00136637,-0.00444902,-0.00879
 885,-0.00024544,0.00064166,-0.00062384,-0.00058298,-0.01102236,0.01811
 256,0.00328469,-0.00088723,-0.00046579,0.01001805,0.00524842,-0.029072
 14,0.00490447,-0.00171942,-0.00914734,-0.00233458,0.00351387,0.0005525
 8,-0.00139033,-0.00181719,0.00367029,-0.00592069,-0.02067374,0.0093388
 4,-0.01010349,0.02233253,-0.01379230,0.00658649,-0.00063352,0.00359194
 ,-0.12615208,0.56256974,0.00840302,0.00686802,-0.06583040,-0.00012021,
 0.00330071,0.00624409,-0.00058179,-0.00394067,-0.00797950,-0.00058325,
 -0.00090667,-0.00132415,-0.00716647,0.00457794,-0.01751845,0.00109657,
 -0.00061520,-0.00045564,0.00873770,-0.00664689,0.02436492,-0.00314053,
 -0.00133734,0.00345436,0.00178447,-0.00061746,-0.00090374,0.00061945,0
 .00138218,-0.00128720,0.00978660,-0.00624009,0.01035454,-0.01349424,0.
 00726081,-0.00940140,-0.00372980,0.00195010,-0.00040029,-0.15803500,0.
 04651424,0.91662068,-0.01444476,0.00206622,0.00872064,0.00250981,-0.00
 143476,-0.00349680,-0.00136302,0.00266509,0.00406137,0.00008946,0.0006
 1641,0.00042579,0.00577515,-0.00321622,0.03993771,-0.00035087,-0.00130
 268,0.00062501,-0.00096119,-0.00035623,-0.04093476,0.00277149,-0.00202
 545,-0.00048355,-0.00101207,0.00303212,-0.00159528,-0.00064273,-0.0001
 2483,0.00059242,-0.00153326,0.00377043,-0.00465815,0.00423668,-0.00503
 891,0.00457464,0.00051550,-0.00056961,0.00030345,-0.34286098,0.1303947
 7,-0.00589635,0.38495316,0.00115776,-0.00944799,-0.00568733,-0.0005800
 2,0.00085949,-0.00013925,0.00075620,-0.00045472,0.00034635,0.00005619,
 -0.00024765,0.00002676,-0.00038084,0.01017063,-0.00993430,-0.00076358,
 -0.00015667,0.00266866,-0.00177781,-0.01361844,0.01136235,-0.00137838,
 0.00097856,0.00150816,0.00060402,-0.00139424,0.00012485,0.00041754,0.0
 0037367,-0.00092465,0.00181310,0.00306754,-0.00056453,0.00068164,-0.00
 291993,0.00163430,-0.00158232,0.00023728,-0.00075063,0.13296691,-0.143
 20174,0.00737542,-0.15881044,0.14492031,0.00656154,-0.00314348,0.00185
 716,-0.00130050,-0.00049305,-0.00015848,0.00065700,0.00027203,-0.00021
 733,0.00004666,-0.00002994,0.00030442,0.00864048,0.00162366,-0.0402915
 2,-0.00048524,0.00206742,-0.00190780,-0.01176842,0.00381731,0.00868868
 ,-0.00079661,0.00215890,-0.00080673,0.00012148,-0.00250933,0.00137674,
 0.00000841,-0.00037080,-0.00009844,-0.00101986,0.00099613,-0.00082538,
 0.00103142,-0.00161682,0.00100344,0.00049179,-0.00014574,-0.00014890,-
 0.02405073,0.01567488,-0.10485672,0.02871510,-0.02175782,0.10919021,-0
 .00492429,-0.00236920,-0.00140476,0.00073608,-0.00019327,-0.00152414,-
 0.00028392,0.00074531,0.00141736,-0.00005363,0.00005663,-0.00010096,0.
 00041310,-0.00094987,0.00860105,-0.00015285,-0.00036456,-0.00037804,0.
 00291875,0.00140069,-0.01195501,0.00013405,-0.00073295,0.00106333,-0.0
 0001237,0.00071656,-0.00065077,-0.00002288,0.00029737,-0.00023343,0.00
 165043,0.00049816,-0.00044753,-0.00028563,-0.00014420,0.00130671,-0.00
 072526,-0.00013824,0.00049049,-0.18982752,0.04763980,0.19863028,-0.014
 66798,0.01195651,0.03491307,0.17806849,-0.00226494,-0.00841185,-0.0010
 6071,0.00012180,-0.00041399,-0.00269877,0.00004882,0.00143907,0.002025
 32,0.00010927,-0.00017110,0.00009219,0.00002931,0.00182509,-0.00431672
 ,-0.00055310,0.00022611,0.00000097,-0.00110291,-0.00079063,0.00671422,
 -0.00086103,0.00049947,0.00153376,0.00038544,-0.00075595,0.00001445,0.
 00025624,0.00022597,-0.00059060,0.00033128,0.00308855,-0.00104049,0.00
 185270,-0.00309739,0.00159405,-0.00078361,-0.00006978,-0.00063635,0.04
 764890,-0.09937748,-0.08470320,0.01438817,0.00946422,-0.01717933,-0.05
 219716,0.07973282,-0.00066015,0.00017370,0.00765863,0.00001820,-0.0014
 5224,-0.00371092,0.00019564,0.00265752,0.00325284,0.00034101,0.0002361
 1,0.00029865,0.00205353,-0.00070743,-0.00053241,-0.00038865,0.00030470
 ,0.00034185,-0.00131148,0.00009606,0.00027832,0.00102144,0.00073227,-0
 .00211681,-0.00061695,-0.00011493,0.00060351,-0.00023683,-0.00073121,0
 .00064149,-0.00277772,0.00169573,-0.00186186,0.00301389,-0.00212154,0.
 00146184,0.00100285,-0.00050863,-0.00005513,0.20107477,-0.08458101,-0.
 46346342,-0.00012316,0.00012677,0.00791772,-0.22136380,0.09460835,0.48
 760206,-0.01189523,-0.00582040,-0.00532924,0.00116696,-0.00049836,-0.0
 0195272,-0.00077380,0.00099042,0.00266865,-0.00000645,0.00047046,0.000
 30311,0.00010376,0.00424451,0.00448980,-0.00140615,-0.00001993,-0.0002
 6539,0.00186466,-0.00288955,-0.00301621,0.00113595,-0.00048308,0.00260
 477,0.00026469,0.00041818,-0.00168205,-0.00047527,0.00066535,-0.000864
 06,-0.00619447,-0.00193111,-0.00566193,0.00269160,0.00174586,0.0008996
 0,0.00223030,-0.00185090,0.00157744,-0.09034173,-0.01597448,0.01444799
 ,0.00542408,0.03105913,-0.01757247,0.01136132,-0.01126088,0.01268024,0
 .07943438,-0.00614440,-0.03656601,-0.02654670,0.00025176,0.00110593,-0
 .00383589,-0.00017051,0.00129833,0.00502776,0.00016842,-0.00039743,0.0
 0036551,0.00230499,0.00172193,-0.00709282,-0.00008471,0.00057586,0.000
 42942,-0.00414744,-0.00110869,0.00903091,-0.00318511,0.00227896,0.0057
 8330,0.00125237,-0.00231926,-0.00000081,0.00135461,0.00120690,-0.00299
 642,0.00303783,0.00810761,-0.00266629,0.00426462,-0.00720628,0.0056349
 8,-0.00408106,-0.00064617,-0.00135421,-0.01541276,-0.21523956,0.085981
 01,0.00972952,-0.01583880,0.01638416,0.00118522,0.01002473,0.00049628,
 0.03523380,0.29102194,-0.00347886,-0.01374908,-0.04646268,-0.00009433,
 -0.00174916,0.00195874,-0.00007324,0.00012002,-0.00250345,0.00008295,0
 .00061074,0.00036318,0.00488134,-0.00801061,0.00626591,0.00163183,0.00
 016118,0.00018244,0.00189942,0.00198590,-0.01413677,0.00527769,0.00144
 155,-0.00909687,-0.00216993,0.00139761,0.00069847,-0.00094305,-0.00215
 099,0.00194700,-0.01333822,-0.00554103,-0.00097662,0.00025478,0.004636
 35,-0.00442104,0.00374389,-0.00124583,-0.00043584,0.00890020,0.0646652
 5,-0.15017316,-0.00865593,0.02156842,0.01036830,0.01003200,0.03216961,
 -0.01855565,-0.00565157,-0.08698554,0.19534150,-0.02023986,-0.00663482
 ,-0.00180921,0.00784122,-0.00083979,-0.00658789,-0.00636000,0.00388141
 ,0.00831589,-0.00051414,0.00134118,0.00153182,-0.00228723,-0.00077585,
 0.00825861,-0.00002523,-0.00052250,-0.00099080,0.00443249,0.00033357,-
 0.00944260,0.00088317,-0.00070568,0.00165567,-0.00005028,0.00102874,-0
 .00123705,-0.00021778,0.00031175,-0.00062453,-0.00194119,0.01984711,-0
 .01851983,0.00557296,-0.01266993,0.01391238,-0.00158054,-0.00053576,-0
 .00207682,-0.13965046,-0.05027392,-0.05075845,-0.02843847,-0.01619562,
 -0.02419312,0.01567411,0.00385169,0.00607716,0.00541542,-0.02555715,-0
 .00229898,0.16148581,-0.00586783,-0.02245541,-0.00104343,0.00079248,0.
 00227663,-0.01489038,0.00219463,0.00200972,0.01112984,0.00085724,-0.00
 012062,-0.00049152,0.00112224,0.00342564,0.00170533,-0.00174450,-0.000
 19699,0.00014635,0.00007405,-0.00189383,-0.00184323,-0.00102439,0.0005
 6332,0.00226806,0.00049080,-0.00077751,-0.00047377,0.00048326,0.000437
 99,-0.00115145,0.00905378,-0.00125208,0.00999287,-0.00104575,-0.014312
 13,-0.00046724,-0.00145969,0.00101200,-0.00044083,-0.05275247,-0.14632
 300,-0.06020292,0.00621641,0.01720846,0.00425182,-0.00740680,0.0065621
 6,-0.01091050,-0.03409903,-0.03802000,-0.00932438,0.08411556,0.1918556
 5,-0.00900689,-0.00869601,-0.01143431,0.00082434,-0.00948405,-0.024635
 60,0.00100112,0.00532638,0.00382755,0.00177654,-0.00018458,-0.00006999
 ,0.00622306,0.00090944,0.00859611,-0.00177199,0.00034860,-0.00019093,0
 .00159805,-0.00058312,-0.01336462,0.00111029,0.00103037,0.00097689,-0.
 00045778,-0.00002071,-0.00044130,0.00000753,-0.00018497,-0.00058461,-0
 .01130222,0.02120874,-0.01065718,0.00848743,-0.00918614,-0.00201854,-0
 .00192050,-0.00006754,-0.00294461,-0.03717279,-0.04099685,-0.13744452,
 -0.02211215,-0.00698353,0.00860462,-0.01839584,-0.02652674,-0.01976071
 ,0.00232404,0.00234536,0.02963654,0.07878776,0.07174537,0.17190523||-0
 .00002298,-0.00000673,0.00000129,-0.00000515,0.00000222,0.00000096,0.0
 0000159,0.00000150,-0.00000043,-0.00000073,0.00000131,-0.00000162,0.00
 000426,0.00000347,0.00000272,0.00000034,-0.00000148,-0.00000147,0.0000
 2206,0.00000097,-0.00000478,0.00000265,0.00000067,0.00000091,-0.000001
 24,-0.00000102,0.00000027,-0.00000052,0.00000060,0.00000296,0.00000022
 ,0.00000204,0.00000112,-0.00000024,0.00000325,-0.00000058,-0.00000084,
 -0.00000024,0.00000134,0.00000671,-0.00000272,-0.00000877,-0.00001194,
 -0.00000096,0.00000569,-0.00000240,-0.00000089,0.00000036,-0.00000279,
 -0.00000308,-0.00000117,0.00001100,0.00000108,0.00000122|||@
 The archive entry for this job was punched.


 KEEP CLOSE TO NATURES HEART, YOURSELF;
 AND BREAK CLEAR AWAY, ONCE IN A WHILE, AND
 CLIMB A MOUNTAIN OR SPEND A WEEK IN THE
 WOODS.  WASH YOUR SPIRIT CLEAN...
                                         -- JOHN MUIR
 Job cpu time:       0 days  0 hours 10 minutes  7.0 seconds.
 Elapsed time:       0 days  0 hours  9 minutes 56.9 seconds.
 File lengths (MBytes):  RWF=     74 Int=      0 D2E=      0 Chk=      4 Scr=      1
 Normal termination of Gaussian 16 at Thu Oct 29 22:44:18 2020.
