 Default is to use a total of   8 processors:
                                8 via shared-memory
                                1 via Linda
 Entering Link 1 = C:\G16W\l1.exe PID=      5744.
  
 Copyright (c) 1988-2019, Gaussian, Inc.  All Rights Reserved.
  
 This is part of the Gaussian(R) 16 program.  It is based on
 the Gaussian(R) 09 system (copyright 2009, Gaussian, Inc.),
 the Gaussian(R) 03 system (copyright 2003, Gaussian, Inc.),
 the Gaussian(R) 98 system (copyright 1998, Gaussian, Inc.),
 the Gaussian(R) 94 system (copyright 1995, Gaussian, Inc.),
 the Gaussian 92(TM) system (copyright 1992, Gaussian, Inc.),
 the Gaussian 90(TM) system (copyright 1990, Gaussian, Inc.),
 the Gaussian 88(TM) system (copyright 1988, Gaussian, Inc.),
 the Gaussian 86(TM) system (copyright 1986, Carnegie Mellon
 University), and the Gaussian 82(TM) system (copyright 1983,
 Carnegie Mellon University). Gaussian is a federally registered
 trademark of Gaussian, Inc.
  
 This software contains proprietary and confidential information,
 including trade secrets, belonging to Gaussian, Inc.
  
 This software is provided under written license and may be
 used, copied, transmitted, or stored only in accord with that
 written license.
  
 The following legend is applicable only to US Government
 contracts under FAR:
  
                    RESTRICTED RIGHTS LEGEND
  
 Use, reproduction and disclosure by the US Government is
 subject to restrictions as set forth in subparagraphs (a)
 and (c) of the Commercial Computer Software - Restricted
 Rights clause in FAR 52.227-19.
  
 Gaussian, Inc.
 340 Quinnipiac St., Bldg. 40, Wallingford CT 06492
  
  
 ---------------------------------------------------------------
 Warning -- This program may not be used in any manner that
 competes with the business of Gaussian, Inc. or will provide
 assistance to any competitor of Gaussian, Inc.  The licensee
 of this program is prohibited from giving any competitor of
 Gaussian, Inc. access to this program.  By using this program,
 the user acknowledges that Gaussian, Inc. is engaged in the
 business of creating and licensing software in the field of
 computational chemistry and represents and warrants to the
 licensee that it is not a competitor of Gaussian, Inc. and that
 it will not use this program in any manner prohibited above.
 ---------------------------------------------------------------
  

 Cite this work as:
 Gaussian 16, Revision C.01,
 M. J. Frisch, G. W. Trucks, H. B. Schlegel, G. E. Scuseria, 
 M. A. Robb, J. R. Cheeseman, G. Scalmani, V. Barone, 
 G. A. Petersson, H. Nakatsuji, X. Li, M. Caricato, A. V. Marenich, 
 J. Bloino, B. G. Janesko, R. Gomperts, B. Mennucci, H. P. Hratchian, 
 J. V. Ortiz, A. F. Izmaylov, J. L. Sonnenberg, D. Williams-Young, 
 F. Ding, F. Lipparini, F. Egidi, J. Goings, B. Peng, A. Petrone, 
 T. Henderson, D. Ranasinghe, V. G. Zakrzewski, J. Gao, N. Rega, 
 G. Zheng, W. Liang, M. Hada, M. Ehara, K. Toyota, R. Fukuda, 
 J. Hasegawa, M. Ishida, T. Nakajima, Y. Honda, O. Kitao, H. Nakai, 
 T. Vreven, K. Throssell, J. A. Montgomery, Jr., J. E. Peralta, 
 F. Ogliaro, M. J. Bearpark, J. J. Heyd, E. N. Brothers, K. N. Kudin, 
 V. N. Staroverov, T. A. Keith, R. Kobayashi, J. Normand, 
 K. Raghavachari, A. P. Rendell, J. C. Burant, S. S. Iyengar, 
 J. Tomasi, M. Cossi, J. M. Millam, M. Klene, C. Adamo, R. Cammi, 
 J. W. Ochterski, R. L. Martin, K. Morokuma, O. Farkas, 
 J. B. Foresman, and D. J. Fox, Gaussian, Inc., Wallingford CT, 2019.
 
 ******************************************
 Gaussian 16:  EM64W-G16RevC.01 30-May-2019
                07-Oct-2020 
 ******************************************
 %chk=H:\Msci\nh3_optf_practical.chk
 Default route: MaxDisk=10GB
 ----------------------------------------------------------------------
 # opt freq b3lyp/6-31g(d,p) pop=(nbo,full) geom=connectivity integral=
 grid=ultrafine
 ----------------------------------------------------------------------
 1/18=20,19=15,26=4,38=1,57=2/1,3;
 2/9=110,12=2,17=6,18=5,40=1/2;
 3/5=1,6=6,7=101,11=2,25=1,30=1,71=1,74=-5,75=-5/1,2,3;
 4//1;
 5/5=2,38=5/2;
 6/7=3,28=1,40=1/1,7;
 7//1,2,3,16;
 1/18=20,19=15,26=4/3(2);
 2/9=110/2;
 99//99;
 2/9=110/2;
 3/5=1,6=6,7=101,11=2,25=1,30=1,71=1,74=-5,75=-5/1,2,3;
 4/5=5,16=3,69=1/1;
 5/5=2,38=5/2;
 7//1,2,3,16;
 1/18=20,19=15,26=4/3(-5);
 2/9=110/2;
 6/7=3,19=2,28=1,40=1/1,7;
 99/9=1/99;
 --------------------
 ZnCl4_2- optmisation
 --------------------
 Symbolic Z-matrix:
 Charge = -2 Multiplicity = 1
 Zn(Iso=64)            0.        0.        0. 
 Cl                   -1.38998   1.38998  -1.38998 
 Cl                    1.38998  -1.38998  -1.38998 
 Cl                    1.38998   1.38998   1.38998 
 Cl                   -1.38998  -1.38998   1.38998 
 
 Add virtual bond connecting atoms Cl2        and Zn1        Dist= 4.55D+00.
 Add virtual bond connecting atoms Cl3        and Zn1        Dist= 4.55D+00.
 Add virtual bond connecting atoms Cl4        and Zn1        Dist= 4.55D+00.
 Add virtual bond connecting atoms Cl5        and Zn1        Dist= 4.55D+00.

 GradGradGradGradGradGradGradGradGradGradGradGradGradGradGradGradGradGrad
 Berny optimization.
 Initialization pass.
                           ----------------------------
                           !    Initial Parameters    !
                           ! (Angstroms and Degrees)  !
 --------------------------                            --------------------------
 ! Name  Definition              Value          Derivative Info.                !
 --------------------------------------------------------------------------------
 ! R1    R(1,2)                  2.4075         estimate D2E/DX2                !
 ! R2    R(1,3)                  2.4075         estimate D2E/DX2                !
 ! R3    R(1,4)                  2.4075         estimate D2E/DX2                !
 ! R4    R(1,5)                  2.4075         estimate D2E/DX2                !
 ! A1    A(2,1,3)              109.4712         estimate D2E/DX2                !
 ! A2    A(2,1,4)              109.4712         estimate D2E/DX2                !
 ! A3    A(2,1,5)              109.4712         estimate D2E/DX2                !
 ! A4    A(3,1,4)              109.4712         estimate D2E/DX2                !
 ! A5    A(3,1,5)              109.4712         estimate D2E/DX2                !
 ! A6    A(4,1,5)              109.4712         estimate D2E/DX2                !
 ! D1    D(2,1,4,3)           -120.0            estimate D2E/DX2                !
 ! D2    D(2,1,5,3)            120.0            estimate D2E/DX2                !
 ! D3    D(2,1,5,4)           -120.0            estimate D2E/DX2                !
 ! D4    D(3,1,5,4)            120.0            estimate D2E/DX2                !
 --------------------------------------------------------------------------------
 Trust Radius=3.00D-01 FncErr=1.00D-07 GrdErr=1.00D-06 EigMax=2.50D+02 EigMin=1.00D-04
 Number of steps in this run=     24 maximum allowed number of steps=    100.
 GradGradGradGradGradGradGradGradGradGradGradGradGradGradGradGradGradGrad

                          Input orientation:                          
 ---------------------------------------------------------------------
 Center     Atomic      Atomic             Coordinates (Angstroms)
 Number     Number       Type             X           Y           Z
 ---------------------------------------------------------------------
      1         30           0        0.000000    0.000000    0.000000
      2         17           0       -1.389977    1.389977   -1.389977
      3         17           0        1.389977   -1.389977   -1.389977
      4         17           0        1.389977    1.389977    1.389977
      5         17           0       -1.389977   -1.389977    1.389977
 ---------------------------------------------------------------------
                    Distance matrix (angstroms):
                    1          2          3          4          5
     1  Zn   0.000000
     2  Cl   2.407511   0.000000
     3  Cl   2.407511   3.931449   0.000000
     4  Cl   2.407511   3.931449   3.931449   0.000000
     5  Cl   2.407511   3.931449   3.931449   3.931449   0.000000
 Stoichiometry    Cl4Zn(2-)
 Framework group  TD[O(Zn),4C3(Cl)]
 Deg. of freedom     1
 Full point group                 TD      NOp  24
 Largest Abelian subgroup         D2      NOp   4
 Largest concise Abelian subgroup D2      NOp   4
                         Standard orientation:                         
 ---------------------------------------------------------------------
 Center     Atomic      Atomic             Coordinates (Angstroms)
 Number     Number       Type             X           Y           Z
 ---------------------------------------------------------------------
      1         30           0        0.000000    0.000000    0.000000
      2         17           0       -1.389977    1.389977   -1.389977
      3         17           0        1.389977   -1.389977   -1.389977
      4         17           0        1.389977    1.389977    1.389977
      5         17           0       -1.389977   -1.389977    1.389977
 ---------------------------------------------------------------------
 Rotational constants (GHZ):           0.9350409           0.9350409           0.9350409
 Standard basis: 6-31G(d,p) (6D, 7F)
 There are    31 symmetry adapted cartesian basis functions of A   symmetry.
 There are    28 symmetry adapted cartesian basis functions of B1  symmetry.
 There are    28 symmetry adapted cartesian basis functions of B2  symmetry.
 There are    28 symmetry adapted cartesian basis functions of B3  symmetry.
 There are    31 symmetry adapted basis functions of A   symmetry.
 There are    27 symmetry adapted basis functions of B1  symmetry.
 There are    27 symmetry adapted basis functions of B2  symmetry.
 There are    27 symmetry adapted basis functions of B3  symmetry.
   112 basis functions,   312 primitive gaussians,   115 cartesian basis functions
    50 alpha electrons       50 beta electrons
       nuclear repulsion energy       681.7956447052 Hartrees.
 NAtoms=    5 NActive=    5 NUniq=    2 SFac= 4.00D+00 NAtFMM=   60 NAOKFM=F Big=F
 Integral buffers will be    131072 words long.
 Raffenetti 2 integral format.
 Two-electron integral symmetry is turned on.
 One-electron integrals computed using PRISM.
 NBasis=   112 RedAO= T EigKep=  1.08D-03  NBF=    31    27    27    27
 NBsUse=   112 1.00D-06 EigRej= -1.00D+00 NBFU=    31    27    27    27
 ExpMin= 4.93D-02 ExpMax= 8.24D+04 ExpMxC= 1.24D+04 IAcc=3 IRadAn=         5 AccDes= 0.00D+00
 Harris functional with IExCor=  402 and IRadAn=       5 diagonalized for initial guess.
 HarFok:  IExCor=  402 AccDes= 0.00D+00 IRadAn=         5 IDoV= 1 UseB2=F ITyADJ=14
 ICtDFT=  3500011 ScaDFX=  1.000000  1.000000  1.000000  1.000000
 FoFCou: FMM=F IPFlag=           0 FMFlag=      100000 FMFlg1=           0
         NFxFlg=           0 DoJE=T BraDBF=F KetDBF=T FulRan=T
         wScrn=  0.000000 ICntrl=       500 IOpCl=  0 I1Cent=   200000004 NGrid=           0
         NMat0=    1 NMatS0=      1 NMatT0=    0 NMatD0=    1 NMtDS0=    0 NMtDT0=    0
 Petite list used in FoFCou.
 Initial guess orbital symmetries:
       Occupied  (A1) (A1) (T2) (T2) (T2) (A1) (T2) (T2) (T2) (A1)
                 (T2) (T2) (T2) (T2) (T2) (T2) (A1) (T2) (T2) (T2)
                 (T1) (T1) (T1) (E) (E) (A1) (T2) (T2) (T2) (A1)
                 (T2) (T2) (T2) (A1) (T2) (T2) (T2) (E) (E) (T2)
                 (T2) (T2) (E) (E) (T1) (T1) (T1) (T2) (T2) (T2)
       Virtual   (A1) (T2) (T2) (T2) (A1) (T2) (T2) (T2) (T2) (T2)
                 (T2) (E) (E) (A1) (T1) (T1) (T1) (T2) (T2) (T2)
                 (T2) (T2) (T2) (A1) (T1) (T1) (T1) (E) (E) (T1)
                 (T1) (T1) (E) (E) (T2) (T2) (T2) (T2) (T2) (T2)
                 (A1) (T2) (T2) (T2) (A1) (E) (E) (T2) (T2) (T2)
                 (T1) (T1) (T1) (T2) (T2) (T2) (A1) (T2) (T2) (T2)
                 (A1) (A1)
 The electronic state of the initial guess is 1-A1.
 Keep R1 ints in memory in symmetry-blocked form, NReq=27553631.
 Requested convergence on RMS density matrix=1.00D-08 within 128 cycles.
 Requested convergence on MAX density matrix=1.00D-06.
 Requested convergence on             energy=1.00D-06.
 No special actions if energy rises.
 SCF Done:  E(RB3LYP) =  -3620.16071816     A.U. after    9 cycles
            NFock=  9  Conv=0.19D-08     -V/T= 2.0024

 **********************************************************************

            Population analysis using the SCF Density.

 **********************************************************************

 Orbital symmetries:
       Occupied  (A1) (A1) (T2) (T2) (T2) (A1) (T2) (T2) (T2) (A1)
                 (T2) (T2) (T2) (T2) (T2) (T2) (A1) (T2) (T2) (T2)
                 (T1) (T1) (T1) (E) (E) (A1) (T2) (T2) (T2) (A1)
                 (T2) (T2) (T2) (T2) (T2) (T2) (E) (E) (A1) (T2)
                 (T2) (T2) (E) (E) (T2) (T2) (T2) (T1) (T1) (T1)
       Virtual   (A1) (T2) (T2) (T2) (A1) (T2) (T2) (T2) (T2) (T2)
                 (T2) (A1) (E) (E) (T1) (T1) (T1) (T2) (T2) (T2)
                 (T2) (T2) (T2) (A1) (T1) (T1) (T1) (E) (E) (T1)
                 (T1) (T1) (E) (E) (T2) (T2) (T2) (T2) (T2) (T2)
                 (A1) (T2) (T2) (T2) (A1) (E) (E) (T2) (T2) (T2)
                 (T1) (T1) (T1) (T2) (T2) (T2) (A1) (T2) (T2) (T2)
                 (A1) (A1)
 The electronic state is 1-A1.
 Alpha  occ. eigenvalues -- -346.93439-101.18416-101.18416-101.18416-101.18416
 Alpha  occ. eigenvalues --  -41.89821 -36.88247 -36.88247 -36.88247  -9.09912
 Alpha  occ. eigenvalues --   -9.09910  -9.09910  -9.09910  -6.85880  -6.85880
 Alpha  occ. eigenvalues --   -6.85880  -6.85878  -6.85574  -6.85574  -6.85574
 Alpha  occ. eigenvalues --   -6.85573  -6.85573  -6.85573  -6.85570  -6.85570
 Alpha  occ. eigenvalues --   -4.48427  -2.87612  -2.87612  -2.87612  -0.45071
 Alpha  occ. eigenvalues --   -0.44357  -0.44357  -0.44357  -0.14222  -0.14222
 Alpha  occ. eigenvalues --   -0.14222  -0.13638  -0.13638  -0.06435  -0.00616
 Alpha  occ. eigenvalues --   -0.00616  -0.00616   0.01935   0.01935   0.02635
 Alpha  occ. eigenvalues --    0.02635   0.02635   0.02894   0.02894   0.02894
 Alpha virt. eigenvalues --    0.29330   0.36231   0.36231   0.36231   0.40864
 Alpha virt. eigenvalues --    0.51740   0.51740   0.51740   0.71467   0.71467
 Alpha virt. eigenvalues --    0.71467   0.72895   0.73490   0.73490   0.82996
 Alpha virt. eigenvalues --    0.82996   0.82996   0.89314   0.89314   0.89314
 Alpha virt. eigenvalues --    0.94542   0.94542   0.94542   1.04303   1.21230
 Alpha virt. eigenvalues --    1.21230   1.21230   1.21281   1.21281   1.22541
 Alpha virt. eigenvalues --    1.22541   1.22541   1.22549   1.22549   1.22563
 Alpha virt. eigenvalues --    1.22563   1.22563   1.23119   1.23119   1.23119
 Alpha virt. eigenvalues --    1.30381   1.33215   1.33215   1.33215   1.80836
 Alpha virt. eigenvalues --    2.39367   2.39367   2.49050   2.49050   2.49050
 Alpha virt. eigenvalues --    2.65617   2.65617   2.65617   2.66303   2.66303
 Alpha virt. eigenvalues --    2.66303   2.75052   4.60591   4.60591   4.60591
 Alpha virt. eigenvalues --    4.65901  47.63095
     Molecular Orbital Coefficients:
                           1         2         3         4         5
                        (A1)--O   (A1)--O   (T2)--O   (T2)--O   (T2)--O
     Eigenvalues --  -346.93439-101.18416-101.18416-101.18416-101.18416
   1 1   Zn 1S          0.99622   0.00000   0.00000   0.00000   0.00000
   2        2S         -0.01224   0.00000   0.00000   0.00000   0.00000
   3        2PX         0.00000   0.00000   0.00000   0.00000   0.00000
   4        2PY         0.00000   0.00000   0.00000   0.00000   0.00000
   5        2PZ         0.00000   0.00000   0.00000   0.00000   0.00000
   6        3S          0.01827   0.00006   0.00000   0.00000   0.00000
   7        3PX         0.00000   0.00000   0.00001   0.00000   0.00000
   8        3PY         0.00000   0.00000   0.00000   0.00000  -0.00001
   9        3PZ         0.00000   0.00000   0.00000   0.00001   0.00000
  10        4S          0.00188  -0.00016   0.00000   0.00000   0.00000
  11        4PX         0.00000   0.00000  -0.00003   0.00000   0.00000
  12        4PY         0.00000   0.00000   0.00000   0.00000   0.00003
  13        4PZ         0.00000   0.00000   0.00000  -0.00003   0.00000
  14        5S          0.00048  -0.00048   0.00000   0.00000   0.00000
  15        5PX         0.00000   0.00000   0.00020   0.00000   0.00000
  16        5PY         0.00000   0.00000   0.00000   0.00000  -0.00020
  17        5PZ         0.00000   0.00000   0.00000   0.00020   0.00000
  18        6XX         0.00664   0.00003   0.00000   0.00000   0.00000
  19        6YY         0.00664   0.00003   0.00000   0.00000   0.00000
  20        6ZZ         0.00664   0.00003   0.00000   0.00000   0.00000
  21        6XY         0.00000   0.00000   0.00000   0.00002   0.00000
  22        6XZ         0.00000   0.00000   0.00000   0.00000  -0.00002
  23        6YZ         0.00000   0.00000   0.00002   0.00000   0.00000
  24        7XX         0.00166  -0.00002   0.00000   0.00000   0.00000
  25        7YY         0.00166  -0.00002   0.00000   0.00000   0.00000
  26        7ZZ         0.00166  -0.00002   0.00000   0.00000   0.00000
  27        7XY         0.00000   0.00000   0.00000  -0.00005   0.00000
  28        7XZ         0.00000   0.00000   0.00000   0.00000   0.00005
  29        7YZ         0.00000   0.00000  -0.00005   0.00000   0.00000
  30        8F 0        0.00000   0.00000   0.00000   0.00004   0.00000
  31        8F+1        0.00000   0.00000  -0.00002   0.00000   0.00000
  32        8F-1        0.00000   0.00000   0.00000   0.00000   0.00002
  33        8F+2        0.00000   0.00000   0.00000   0.00000   0.00000
  34        8F-2       -0.00003   0.00007   0.00000   0.00000   0.00000
  35        8F+3        0.00000   0.00000   0.00003   0.00000   0.00000
  36        8F-3        0.00000   0.00000   0.00000   0.00000   0.00003
  37 2   Cl 1S          0.00000   0.49800   0.49800   0.49800   0.49800
  38        2S          0.00000   0.00758   0.00758   0.00758   0.00758
  39        2PX         0.00000   0.00001   0.00001   0.00001   0.00001
  40        2PY         0.00000  -0.00001  -0.00001  -0.00001  -0.00001
  41        2PZ         0.00000   0.00001   0.00001   0.00001   0.00001
  42        3S         -0.00007  -0.01053  -0.01052  -0.01052  -0.01052
  43        3PX         0.00000  -0.00001  -0.00001  -0.00001  -0.00001
  44        3PY         0.00000   0.00001   0.00001   0.00001   0.00001
  45        3PZ         0.00000  -0.00001  -0.00001  -0.00001  -0.00001
  46        4S          0.00012   0.00095   0.00089   0.00089   0.00089
  47        4PX         0.00010   0.00003   0.00000   0.00003   0.00003
  48        4PY        -0.00010  -0.00003  -0.00003  -0.00003   0.00000
  49        4PZ         0.00010   0.00003   0.00003   0.00000   0.00003
  50        5XX         0.00002   0.00376   0.00376   0.00376   0.00376
  51        5YY         0.00002   0.00376   0.00376   0.00376   0.00376
  52        5ZZ         0.00002   0.00376   0.00376   0.00376   0.00376
  53        5XY        -0.00003   0.00000   0.00000   0.00000   0.00000
  54        5XZ         0.00003   0.00000   0.00000   0.00000   0.00000
  55        5YZ        -0.00003   0.00000   0.00000   0.00000   0.00000
  56 3   Cl 1S          0.00000   0.49800  -0.49800   0.49800  -0.49800
  57        2S          0.00000   0.00758  -0.00758   0.00758  -0.00758
  58        2PX         0.00000  -0.00001   0.00001  -0.00001   0.00001
  59        2PY         0.00000   0.00001  -0.00001   0.00001  -0.00001
  60        2PZ         0.00000   0.00001  -0.00001   0.00001  -0.00001
  61        3S         -0.00007  -0.01053   0.01052  -0.01052   0.01052
  62        3PX         0.00000   0.00001  -0.00001   0.00001  -0.00001
  63        3PY         0.00000  -0.00001   0.00001  -0.00001   0.00001
  64        3PZ         0.00000  -0.00001   0.00001  -0.00001   0.00001
  65        4S          0.00012   0.00095  -0.00089   0.00089  -0.00089
  66        4PX        -0.00010  -0.00003   0.00000  -0.00003   0.00003
  67        4PY         0.00010   0.00003  -0.00003   0.00003   0.00000
  68        4PZ         0.00010   0.00003  -0.00003   0.00000  -0.00003
  69        5XX         0.00002   0.00376  -0.00376   0.00376  -0.00376
  70        5YY         0.00002   0.00376  -0.00376   0.00376  -0.00376
  71        5ZZ         0.00002   0.00376  -0.00376   0.00376  -0.00376
  72        5XY        -0.00003   0.00000   0.00000   0.00000   0.00000
  73        5XZ        -0.00003   0.00000   0.00000   0.00000   0.00000
  74        5YZ         0.00003   0.00000   0.00000   0.00000   0.00000
  75 4   Cl 1S          0.00000   0.49800  -0.49800  -0.49800   0.49800
  76        2S          0.00000   0.00758  -0.00758  -0.00758   0.00758
  77        2PX         0.00000  -0.00001   0.00001   0.00001  -0.00001
  78        2PY         0.00000  -0.00001   0.00001   0.00001  -0.00001
  79        2PZ         0.00000  -0.00001   0.00001   0.00001  -0.00001
  80        3S         -0.00007  -0.01053   0.01052   0.01052  -0.01052
  81        3PX         0.00000   0.00001  -0.00001  -0.00001   0.00001
  82        3PY         0.00000   0.00001  -0.00001  -0.00001   0.00001
  83        3PZ         0.00000   0.00001  -0.00001  -0.00001   0.00001
  84        4S          0.00012   0.00095  -0.00089  -0.00089   0.00089
  85        4PX        -0.00010  -0.00003   0.00000   0.00003  -0.00003
  86        4PY        -0.00010  -0.00003   0.00003   0.00003   0.00000
  87        4PZ        -0.00010  -0.00003   0.00003   0.00000  -0.00003
  88        5XX         0.00002   0.00376  -0.00376  -0.00376   0.00376
  89        5YY         0.00002   0.00376  -0.00376  -0.00376   0.00376
  90        5ZZ         0.00002   0.00376  -0.00376  -0.00376   0.00376
  91        5XY         0.00003   0.00000   0.00000   0.00000   0.00000
  92        5XZ         0.00003   0.00000   0.00000   0.00000   0.00000
  93        5YZ         0.00003   0.00000   0.00000   0.00000   0.00000
  94 5   Cl 1S          0.00000   0.49800   0.49800  -0.49800  -0.49800
  95        2S          0.00000   0.00758   0.00758  -0.00758  -0.00758
  96        2PX         0.00000   0.00001   0.00001  -0.00001  -0.00001
  97        2PY         0.00000   0.00001   0.00001  -0.00001  -0.00001
  98        2PZ         0.00000  -0.00001  -0.00001   0.00001   0.00001
  99        3S         -0.00007  -0.01053  -0.01052   0.01052   0.01052
 100        3PX         0.00000  -0.00001  -0.00001   0.00001   0.00001
 101        3PY         0.00000  -0.00001  -0.00001   0.00001   0.00001
 102        3PZ         0.00000   0.00001   0.00001  -0.00001  -0.00001
 103        4S          0.00012   0.00095   0.00089  -0.00089  -0.00089
 104        4PX         0.00010   0.00003   0.00000  -0.00003  -0.00003
 105        4PY         0.00010   0.00003   0.00003  -0.00003   0.00000
 106        4PZ        -0.00010  -0.00003  -0.00003   0.00000   0.00003
 107        5XX         0.00002   0.00376   0.00376  -0.00376  -0.00376
 108        5YY         0.00002   0.00376   0.00376  -0.00376  -0.00376
 109        5ZZ         0.00002   0.00376   0.00376  -0.00376  -0.00376
 110        5XY         0.00003   0.00000   0.00000   0.00000   0.00000
 111        5XZ        -0.00003   0.00000   0.00000   0.00000   0.00000
 112        5YZ        -0.00003   0.00000   0.00000   0.00000   0.00000
                           6         7         8         9        10
                        (A1)--O   (T2)--O   (T2)--O   (T2)--O   (A1)--O
     Eigenvalues --   -41.89821 -36.88247 -36.88247 -36.88247  -9.09912
   1 1   Zn 1S          0.30826   0.00000   0.00000   0.00000  -0.00001
   2        2S          1.03581   0.00000   0.00000   0.00000  -0.00001
   3        2PX         0.00000   0.00000   0.99678   0.00000   0.00000
   4        2PY         0.00000   0.99678   0.00000   0.00000   0.00000
   5        2PZ         0.00000   0.00000   0.00000   0.99678   0.00000
   6        3S          0.01633   0.00000   0.00000   0.00000  -0.00006
   7        3PX         0.00000   0.00000   0.00890   0.00000   0.00000
   8        3PY         0.00000   0.00890   0.00000   0.00000   0.00000
   9        3PZ         0.00000   0.00000   0.00000   0.00890   0.00000
  10        4S          0.00443   0.00000   0.00000   0.00000  -0.00005
  11        4PX         0.00000   0.00000  -0.00219   0.00000   0.00000
  12        4PY         0.00000  -0.00219   0.00000   0.00000   0.00000
  13        4PZ         0.00000   0.00000   0.00000  -0.00219   0.00000
  14        5S          0.00109   0.00000   0.00000   0.00000   0.01017
  15        5PX         0.00000   0.00000   0.00068   0.00000   0.00000
  16        5PY         0.00000   0.00068   0.00000   0.00000   0.00000
  17        5PZ         0.00000   0.00000   0.00000   0.00068   0.00000
  18        6XX        -0.00114   0.00000   0.00000   0.00000  -0.00011
  19        6YY        -0.00114   0.00000   0.00000   0.00000  -0.00011
  20        6ZZ        -0.00114   0.00000   0.00000   0.00000  -0.00011
  21        6XY         0.00000   0.00000   0.00000   0.00002   0.00000
  22        6XZ         0.00000   0.00002   0.00000   0.00000   0.00000
  23        6YZ         0.00000   0.00000   0.00002   0.00000   0.00000
  24        7XX         0.00301   0.00000   0.00000   0.00000  -0.00012
  25        7YY         0.00301   0.00000   0.00000   0.00000  -0.00012
  26        7ZZ         0.00301   0.00000   0.00000   0.00000  -0.00012
  27        7XY         0.00000   0.00000   0.00000  -0.00010   0.00000
  28        7XZ         0.00000  -0.00010   0.00000   0.00000   0.00000
  29        7YZ         0.00000   0.00000  -0.00010   0.00000   0.00000
  30        8F 0        0.00000   0.00000   0.00000   0.00002   0.00000
  31        8F+1        0.00000   0.00000  -0.00001   0.00000   0.00000
  32        8F-1        0.00000  -0.00001   0.00000   0.00000   0.00000
  33        8F+2        0.00000   0.00000   0.00000   0.00000   0.00000
  34        8F-2       -0.00006   0.00000   0.00000   0.00000  -0.00008
  35        8F+3        0.00000   0.00000   0.00002   0.00000   0.00000
  36        8F-3        0.00000  -0.00002   0.00000   0.00000   0.00000
  37 2   Cl 1S          0.00000   0.00000   0.00000   0.00000  -0.14232
  38        2S         -0.00001  -0.00002   0.00002   0.00002   0.51135
  39        2PX         0.00000   0.00000   0.00001   0.00000   0.00044
  40        2PY         0.00000   0.00001   0.00000   0.00000  -0.00044
  41        2PZ         0.00000   0.00000   0.00000   0.00001   0.00044
  42        3S         -0.00017  -0.00007   0.00007   0.00007   0.03763
  43        3PX         0.00000   0.00000  -0.00002   0.00000   0.00032
  44        3PY         0.00000  -0.00002   0.00000   0.00000  -0.00032
  45        3PZ         0.00000   0.00000   0.00000  -0.00002   0.00032
  46        4S          0.00032   0.00027  -0.00027  -0.00027  -0.01055
  47        4PX         0.00025   0.00025  -0.00012  -0.00025  -0.00120
  48        4PY        -0.00025  -0.00012   0.00025   0.00025   0.00120
  49        4PZ         0.00025   0.00025  -0.00025  -0.00012  -0.00120
  50        5XX         0.00003   0.00003   0.00005  -0.00003  -0.00780
  51        5YY         0.00003  -0.00005  -0.00003  -0.00003  -0.00780
  52        5ZZ         0.00003   0.00003  -0.00003   0.00005  -0.00780
  53        5XY        -0.00007  -0.00004   0.00004   0.00008   0.00002
  54        5XZ         0.00007   0.00008  -0.00004  -0.00004  -0.00002
  55        5YZ        -0.00007  -0.00004   0.00008   0.00004   0.00002
  56 3   Cl 1S          0.00000   0.00000   0.00000   0.00000  -0.14232
  57        2S         -0.00001   0.00002  -0.00002   0.00002   0.51135
  58        2PX         0.00000   0.00000   0.00001   0.00000  -0.00044
  59        2PY         0.00000   0.00001   0.00000   0.00000   0.00044
  60        2PZ         0.00000   0.00000   0.00000   0.00001   0.00044
  61        3S         -0.00017   0.00007  -0.00007   0.00007   0.03763
  62        3PX         0.00000   0.00000  -0.00002   0.00000  -0.00032
  63        3PY         0.00000  -0.00002   0.00000   0.00000   0.00032
  64        3PZ         0.00000   0.00000   0.00000  -0.00002   0.00032
  65        4S          0.00032  -0.00027   0.00027  -0.00027  -0.01055
  66        4PX        -0.00025   0.00025  -0.00012   0.00025   0.00120
  67        4PY         0.00025  -0.00012   0.00025  -0.00025  -0.00120
  68        4PZ         0.00025  -0.00025   0.00025  -0.00012  -0.00120
  69        5XX         0.00003  -0.00003  -0.00005  -0.00003  -0.00780
  70        5YY         0.00003   0.00005   0.00003  -0.00003  -0.00780
  71        5ZZ         0.00003  -0.00003   0.00003   0.00005  -0.00780
  72        5XY        -0.00007   0.00004  -0.00004   0.00008   0.00002
  73        5XZ        -0.00007   0.00008  -0.00004   0.00004   0.00002
  74        5YZ         0.00007  -0.00004   0.00008  -0.00004  -0.00002
  75 4   Cl 1S          0.00000   0.00000   0.00000   0.00000  -0.14232
  76        2S         -0.00001  -0.00002  -0.00002  -0.00002   0.51135
  77        2PX         0.00000   0.00000   0.00001   0.00000  -0.00044
  78        2PY         0.00000   0.00001   0.00000   0.00000  -0.00044
  79        2PZ         0.00000   0.00000   0.00000   0.00001  -0.00044
  80        3S         -0.00017  -0.00007  -0.00007  -0.00007   0.03763
  81        3PX         0.00000   0.00000  -0.00002   0.00000  -0.00032
  82        3PY         0.00000  -0.00002   0.00000   0.00000  -0.00032
  83        3PZ         0.00000   0.00000   0.00000  -0.00002  -0.00032
  84        4S          0.00032   0.00027   0.00027   0.00027  -0.01055
  85        4PX        -0.00025  -0.00025  -0.00012  -0.00025   0.00120
  86        4PY        -0.00025  -0.00012  -0.00025  -0.00025   0.00120
  87        4PZ        -0.00025  -0.00025  -0.00025  -0.00012   0.00120
  88        5XX         0.00003   0.00003  -0.00005   0.00003  -0.00780
  89        5YY         0.00003  -0.00005   0.00003   0.00003  -0.00780
  90        5ZZ         0.00003   0.00003   0.00003  -0.00005  -0.00780
  91        5XY         0.00007   0.00004   0.00004   0.00008  -0.00002
  92        5XZ         0.00007   0.00008   0.00004   0.00004  -0.00002
  93        5YZ         0.00007   0.00004   0.00008   0.00004  -0.00002
  94 5   Cl 1S          0.00000   0.00000   0.00000   0.00000  -0.14232
  95        2S         -0.00001   0.00002   0.00002  -0.00002   0.51135
  96        2PX         0.00000   0.00000   0.00001   0.00000   0.00044
  97        2PY         0.00000   0.00001   0.00000   0.00000   0.00044
  98        2PZ         0.00000   0.00000   0.00000   0.00001  -0.00044
  99        3S         -0.00017   0.00007   0.00007  -0.00007   0.03763
 100        3PX         0.00000   0.00000  -0.00002   0.00000   0.00032
 101        3PY         0.00000  -0.00002   0.00000   0.00000   0.00032
 102        3PZ         0.00000   0.00000   0.00000  -0.00002  -0.00032
 103        4S          0.00032  -0.00027  -0.00027   0.00027  -0.01055
 104        4PX         0.00025  -0.00025  -0.00012   0.00025  -0.00120
 105        4PY         0.00025  -0.00012  -0.00025   0.00025  -0.00120
 106        4PZ        -0.00025   0.00025   0.00025  -0.00012   0.00120
 107        5XX         0.00003  -0.00003   0.00005   0.00003  -0.00780
 108        5YY         0.00003   0.00005  -0.00003   0.00003  -0.00780
 109        5ZZ         0.00003  -0.00003  -0.00003  -0.00005  -0.00780
 110        5XY         0.00007  -0.00004  -0.00004   0.00008  -0.00002
 111        5XZ        -0.00007   0.00008   0.00004  -0.00004   0.00002
 112        5YZ        -0.00007   0.00004   0.00008  -0.00004   0.00002
                          11        12        13        14        15
                        (T2)--O   (T2)--O   (T2)--O   (T2)--O   (T2)--O
     Eigenvalues --    -9.09910  -9.09910  -9.09910  -6.85880  -6.85880
   1 1   Zn 1S          0.00000   0.00000   0.00000   0.00000   0.00000
   2        2S          0.00000   0.00000   0.00000   0.00000   0.00000
   3        2PX         0.00000   0.00000   0.00002   0.00004   0.00000
   4        2PY         0.00000  -0.00002   0.00000   0.00000   0.00000
   5        2PZ         0.00002   0.00000   0.00000   0.00000   0.00004
   6        3S          0.00000   0.00000   0.00000   0.00000   0.00000
   7        3PX         0.00000   0.00000  -0.00018  -0.00036   0.00000
   8        3PY         0.00000   0.00018   0.00000   0.00000   0.00000
   9        3PZ        -0.00018   0.00000   0.00000   0.00000  -0.00036
  10        4S          0.00000   0.00000   0.00000   0.00000   0.00000
  11        4PX         0.00000   0.00000  -0.00072  -0.00149   0.00000
  12        4PY         0.00000   0.00072   0.00000   0.00000   0.00000
  13        4PZ        -0.00072   0.00000   0.00000   0.00000  -0.00149
  14        5S          0.00000   0.00000   0.00000   0.00000   0.00000
  15        5PX         0.00000   0.00000  -0.00366  -0.00067   0.00000
  16        5PY         0.00000   0.00366   0.00000   0.00000   0.00000
  17        5PZ        -0.00366   0.00000   0.00000   0.00000  -0.00067
  18        6XX         0.00000   0.00000   0.00000   0.00000   0.00000
  19        6YY         0.00000   0.00000   0.00000   0.00000   0.00000
  20        6ZZ         0.00000   0.00000   0.00000   0.00000   0.00000
  21        6XY         0.00003   0.00000   0.00000   0.00000  -0.00003
  22        6XZ         0.00000  -0.00003   0.00000   0.00000   0.00000
  23        6YZ         0.00000   0.00000   0.00003  -0.00003   0.00000
  24        7XX         0.00000   0.00000   0.00000   0.00000   0.00000
  25        7YY         0.00000   0.00000   0.00000   0.00000   0.00000
  26        7ZZ         0.00000   0.00000   0.00000   0.00000   0.00000
  27        7XY        -0.00021   0.00000   0.00000   0.00000  -0.00005
  28        7XZ         0.00000   0.00021   0.00000   0.00000   0.00000
  29        7YZ         0.00000   0.00000  -0.00021  -0.00005   0.00000
  30        8F 0       -0.00015   0.00000   0.00000   0.00000  -0.00031
  31        8F+1        0.00000   0.00000   0.00009   0.00019   0.00000
  32        8F-1        0.00000  -0.00009   0.00000   0.00000   0.00000
  33        8F+2        0.00000   0.00000   0.00000   0.00000   0.00000
  34        8F-2        0.00000   0.00000   0.00000   0.00000   0.00000
  35        8F+3        0.00000   0.00000  -0.00012  -0.00024   0.00000
  36        8F-3        0.00000  -0.00012   0.00000   0.00000   0.00000
  37 2   Cl 1S         -0.14233  -0.14233  -0.14233   0.00026   0.00026
  38        2S          0.51121   0.51121   0.51121  -0.00084  -0.00084
  39        2PX         0.00044   0.00044   0.00048   0.28719   0.28545
  40        2PY        -0.00044  -0.00048  -0.00044  -0.28545  -0.28545
  41        2PZ         0.00048   0.00044   0.00044   0.28545   0.28719
  42        3S          0.03725   0.03725   0.03725   0.00036   0.00036
  43        3PX         0.00033   0.00033   0.00007   0.00859   0.00843
  44        3PY        -0.00033  -0.00007  -0.00033  -0.00843  -0.00843
  45        3PZ         0.00007   0.00033   0.00033   0.00843   0.00859
  46        4S         -0.00814  -0.00814  -0.00814  -0.00139  -0.00139
  47        4PX        -0.00092  -0.00092   0.00003  -0.00290  -0.00282
  48        4PY         0.00092  -0.00003   0.00092   0.00282   0.00282
  49        4PZ         0.00003  -0.00092  -0.00092  -0.00282  -0.00290
  50        5XX        -0.00808  -0.00808  -0.00798   0.00021   0.00018
  51        5YY        -0.00808  -0.00798  -0.00808   0.00018   0.00018
  52        5ZZ        -0.00798  -0.00808  -0.00808   0.00018   0.00021
  53        5XY         0.00001  -0.00003  -0.00003  -0.00001   0.00000
  54        5XZ         0.00003  -0.00001   0.00003   0.00001   0.00001
  55        5YZ        -0.00003  -0.00003   0.00001   0.00000  -0.00001
  56 3   Cl 1S         -0.14233   0.14233   0.14233  -0.00026   0.00026
  57        2S          0.51121  -0.51121  -0.51121   0.00084  -0.00084
  58        2PX        -0.00044   0.00044   0.00048   0.28719  -0.28545
  59        2PY         0.00044  -0.00048  -0.00044  -0.28545   0.28545
  60        2PZ         0.00048  -0.00044  -0.00044  -0.28545   0.28719
  61        3S          0.03725  -0.03725  -0.03725  -0.00036   0.00036
  62        3PX        -0.00033   0.00033   0.00007   0.00859  -0.00843
  63        3PY         0.00033  -0.00007  -0.00033  -0.00843   0.00843
  64        3PZ         0.00007  -0.00033  -0.00033  -0.00843   0.00859
  65        4S         -0.00814   0.00814   0.00814   0.00139  -0.00139
  66        4PX         0.00092  -0.00092   0.00003  -0.00290   0.00282
  67        4PY        -0.00092  -0.00003   0.00092   0.00282  -0.00282
  68        4PZ         0.00003   0.00092   0.00092   0.00282  -0.00290
  69        5XX        -0.00808   0.00808   0.00798  -0.00021   0.00018
  70        5YY        -0.00808   0.00798   0.00808  -0.00018   0.00018
  71        5ZZ        -0.00798   0.00808   0.00808  -0.00018   0.00021
  72        5XY         0.00001   0.00003   0.00003   0.00001   0.00000
  73        5XZ        -0.00003  -0.00001   0.00003   0.00001  -0.00001
  74        5YZ         0.00003  -0.00003   0.00001   0.00000   0.00001
  75 4   Cl 1S          0.14233  -0.14233   0.14233  -0.00026  -0.00026
  76        2S         -0.51121   0.51121  -0.51121   0.00084   0.00084
  77        2PX         0.00044  -0.00044   0.00048   0.28719   0.28545
  78        2PY         0.00044  -0.00048   0.00044   0.28545   0.28545
  79        2PZ         0.00048  -0.00044   0.00044   0.28545   0.28719
  80        3S         -0.03725   0.03725  -0.03725  -0.00036  -0.00036
  81        3PX         0.00033  -0.00033   0.00007   0.00859   0.00843
  82        3PY         0.00033  -0.00007   0.00033   0.00843   0.00843
  83        3PZ         0.00007  -0.00033   0.00033   0.00843   0.00859
  84        4S          0.00814  -0.00814   0.00814   0.00139   0.00139
  85        4PX        -0.00092   0.00092   0.00003  -0.00290  -0.00282
  86        4PY        -0.00092  -0.00003  -0.00092  -0.00282  -0.00282
  87        4PZ         0.00003   0.00092  -0.00092  -0.00282  -0.00290
  88        5XX         0.00808  -0.00808   0.00798  -0.00021  -0.00018
  89        5YY         0.00808  -0.00798   0.00808  -0.00018  -0.00018
  90        5ZZ         0.00798  -0.00808   0.00808  -0.00018  -0.00021
  91        5XY         0.00001   0.00003  -0.00003  -0.00001   0.00000
  92        5XZ        -0.00003  -0.00001  -0.00003  -0.00001  -0.00001
  93        5YZ        -0.00003   0.00003   0.00001   0.00000  -0.00001
  94 5   Cl 1S          0.14233   0.14233  -0.14233   0.00026  -0.00026
  95        2S         -0.51121  -0.51121   0.51121  -0.00084   0.00084
  96        2PX        -0.00044  -0.00044   0.00048   0.28719  -0.28545
  97        2PY        -0.00044  -0.00048   0.00044   0.28545  -0.28545
  98        2PZ         0.00048   0.00044  -0.00044  -0.28545   0.28719
  99        3S         -0.03725  -0.03725   0.03725   0.00036  -0.00036
 100        3PX        -0.00033  -0.00033   0.00007   0.00859  -0.00843
 101        3PY        -0.00033  -0.00007   0.00033   0.00843  -0.00843
 102        3PZ         0.00007   0.00033  -0.00033  -0.00843   0.00859
 103        4S          0.00814   0.00814  -0.00814  -0.00139   0.00139
 104        4PX         0.00092   0.00092   0.00003  -0.00290   0.00282
 105        4PY         0.00092  -0.00003  -0.00092  -0.00282   0.00282
 106        4PZ         0.00003  -0.00092   0.00092   0.00282  -0.00290
 107        5XX         0.00808   0.00808  -0.00798   0.00021  -0.00018
 108        5YY         0.00808   0.00798  -0.00808   0.00018  -0.00018
 109        5ZZ         0.00798   0.00808  -0.00808   0.00018  -0.00021
 110        5XY         0.00001  -0.00003   0.00003   0.00001   0.00000
 111        5XZ         0.00003  -0.00001  -0.00003  -0.00001   0.00001
 112        5YZ         0.00003   0.00003   0.00001   0.00000   0.00001
                          16        17        18        19        20
                        (T2)--O   (A1)--O   (T2)--O   (T2)--O   (T2)--O
     Eigenvalues --    -6.85880  -6.85878  -6.85574  -6.85574  -6.85574
   1 1   Zn 1S          0.00000   0.00000   0.00000   0.00000   0.00000
   2        2S          0.00000  -0.00009   0.00000   0.00000   0.00000
   3        2PX         0.00000   0.00000   0.00000   0.00000   0.00000
   4        2PY         0.00004   0.00000   0.00000   0.00000   0.00000
   5        2PZ         0.00000   0.00000   0.00000   0.00000   0.00000
   6        3S          0.00000  -0.00042   0.00000   0.00000   0.00000
   7        3PX         0.00000   0.00000   0.00002   0.00000   0.00000
   8        3PY        -0.00036   0.00000   0.00000   0.00002   0.00000
   9        3PZ         0.00000   0.00000   0.00000   0.00000   0.00002
  10        4S          0.00000  -0.00106   0.00000   0.00000   0.00000
  11        4PX         0.00000   0.00000   0.00010   0.00000   0.00000
  12        4PY        -0.00149   0.00000   0.00000   0.00010   0.00000
  13        4PZ         0.00000   0.00000   0.00000   0.00000   0.00010
  14        5S          0.00000   0.00522   0.00000   0.00000   0.00000
  15        5PX         0.00000   0.00000   0.00515   0.00000   0.00000
  16        5PY        -0.00067   0.00000   0.00000   0.00515   0.00000
  17        5PZ         0.00000   0.00000   0.00000   0.00000   0.00515
  18        6XX         0.00000  -0.00007   0.00000   0.00000   0.00000
  19        6YY         0.00000  -0.00007   0.00000   0.00000   0.00000
  20        6ZZ         0.00000  -0.00007   0.00000   0.00000   0.00000
  21        6XY         0.00000   0.00000   0.00000   0.00000   0.00001
  22        6XZ        -0.00003   0.00000   0.00000   0.00001   0.00000
  23        6YZ         0.00000   0.00000   0.00001   0.00000   0.00000
  24        7XX         0.00000   0.00032   0.00000   0.00000   0.00000
  25        7YY         0.00000   0.00032   0.00000   0.00000   0.00000
  26        7ZZ         0.00000   0.00032   0.00000   0.00000   0.00000
  27        7XY         0.00000   0.00000   0.00000   0.00000  -0.00005
  28        7XZ        -0.00005   0.00000   0.00000  -0.00005   0.00000
  29        7YZ         0.00000   0.00000  -0.00005   0.00000   0.00000
  30        8F 0        0.00000   0.00000   0.00000   0.00000   0.00000
  31        8F+1        0.00000   0.00000   0.00000   0.00000   0.00000
  32        8F-1        0.00019   0.00000   0.00000   0.00000   0.00000
  33        8F+2        0.00000   0.00000   0.00000   0.00000   0.00000
  34        8F-2        0.00000  -0.00053   0.00000   0.00000   0.00000
  35        8F+3        0.00000   0.00000   0.00000   0.00000   0.00000
  36        8F-3        0.00024   0.00000   0.00000   0.00000   0.00000
  37 2   Cl 1S         -0.00026   0.00026  -0.00001   0.00001  -0.00001
  38        2S          0.00084  -0.00079  -0.00008   0.00008  -0.00008
  39        2PX        -0.28545   0.28605   0.40371   0.20312  -0.20312
  40        2PY         0.28719  -0.28605   0.20312   0.40371   0.20312
  41        2PZ        -0.28545   0.28605  -0.20312   0.20312   0.40371
  42        3S         -0.00036   0.00049  -0.00031   0.00031  -0.00031
  43        3PX        -0.00843   0.00839   0.01188   0.00591  -0.00591
  44        3PY         0.00859  -0.00839   0.00591   0.01188   0.00591
  45        3PZ        -0.00843   0.00839  -0.00591   0.00591   0.01188
  46        4S          0.00139  -0.00247   0.00208  -0.00208   0.00208
  47        4PX         0.00282  -0.00286  -0.00400  -0.00218   0.00218
  48        4PY        -0.00290   0.00286  -0.00218  -0.00400  -0.00218
  49        4PZ         0.00282  -0.00286   0.00218  -0.00218  -0.00400
  50        5XX        -0.00018   0.00024  -0.00018   0.00014  -0.00014
  51        5YY        -0.00021   0.00024  -0.00014   0.00018  -0.00014
  52        5ZZ        -0.00018   0.00024  -0.00014   0.00014  -0.00018
  53        5XY         0.00001  -0.00001   0.00001  -0.00001  -0.00001
  54        5XZ         0.00000   0.00001  -0.00001  -0.00001  -0.00001
  55        5YZ         0.00001  -0.00001  -0.00001  -0.00001   0.00001
  56 3   Cl 1S          0.00026   0.00026   0.00001  -0.00001  -0.00001
  57        2S         -0.00084  -0.00079   0.00008  -0.00008  -0.00008
  58        2PX        -0.28545  -0.28605   0.40371   0.20312   0.20312
  59        2PY         0.28719   0.28605   0.20312   0.40371  -0.20312
  60        2PZ         0.28545   0.28605   0.20312  -0.20312   0.40371
  61        3S          0.00036   0.00049   0.00031  -0.00031  -0.00031
  62        3PX        -0.00843  -0.00839   0.01188   0.00591   0.00591
  63        3PY         0.00859   0.00839   0.00591   0.01188  -0.00591
  64        3PZ         0.00843   0.00839   0.00591  -0.00591   0.01188
  65        4S         -0.00139  -0.00247  -0.00208   0.00208   0.00208
  66        4PX         0.00282   0.00286  -0.00400  -0.00218  -0.00218
  67        4PY        -0.00290  -0.00286  -0.00218  -0.00400   0.00218
  68        4PZ        -0.00282  -0.00286  -0.00218   0.00218  -0.00400
  69        5XX         0.00018   0.00024   0.00018  -0.00014  -0.00014
  70        5YY         0.00021   0.00024   0.00014  -0.00018  -0.00014
  71        5ZZ         0.00018   0.00024   0.00014  -0.00014  -0.00018
  72        5XY        -0.00001  -0.00001  -0.00001   0.00001  -0.00001
  73        5XZ         0.00000  -0.00001  -0.00001  -0.00001   0.00001
  74        5YZ         0.00001   0.00001  -0.00001  -0.00001  -0.00001
  75 4   Cl 1S         -0.00026   0.00026   0.00001   0.00001   0.00001
  76        2S          0.00084  -0.00079   0.00008   0.00008   0.00008
  77        2PX         0.28545  -0.28605   0.40371  -0.20312  -0.20312
  78        2PY         0.28719  -0.28605  -0.20312   0.40371  -0.20312
  79        2PZ         0.28545  -0.28605  -0.20312  -0.20312   0.40371
  80        3S         -0.00036   0.00049   0.00031   0.00031   0.00031
  81        3PX         0.00843  -0.00839   0.01188  -0.00591  -0.00591
  82        3PY         0.00859  -0.00839  -0.00591   0.01188  -0.00591
  83        3PZ         0.00843  -0.00839  -0.00591  -0.00591   0.01188
  84        4S          0.00139  -0.00247  -0.00208  -0.00208  -0.00208
  85        4PX        -0.00282   0.00286  -0.00400   0.00218   0.00218
  86        4PY        -0.00290   0.00286   0.00218  -0.00400   0.00218
  87        4PZ        -0.00282   0.00286   0.00218   0.00218  -0.00400
  88        5XX        -0.00018   0.00024   0.00018   0.00014   0.00014
  89        5YY        -0.00021   0.00024   0.00014   0.00018   0.00014
  90        5ZZ        -0.00018   0.00024   0.00014   0.00014   0.00018
  91        5XY        -0.00001   0.00001   0.00001   0.00001  -0.00001
  92        5XZ         0.00000   0.00001   0.00001  -0.00001   0.00001
  93        5YZ        -0.00001   0.00001  -0.00001   0.00001   0.00001
  94 5   Cl 1S          0.00026   0.00026  -0.00001  -0.00001   0.00001
  95        2S         -0.00084  -0.00079  -0.00008  -0.00008   0.00008
  96        2PX         0.28545   0.28605   0.40371  -0.20312   0.20312
  97        2PY         0.28719   0.28605  -0.20312   0.40371   0.20312
  98        2PZ        -0.28545  -0.28605   0.20312   0.20312   0.40371
  99        3S          0.00036   0.00049  -0.00031  -0.00031   0.00031
 100        3PX         0.00843   0.00839   0.01188  -0.00591   0.00591
 101        3PY         0.00859   0.00839  -0.00591   0.01188   0.00591
 102        3PZ        -0.00843  -0.00839   0.00591   0.00591   0.01188
 103        4S         -0.00139  -0.00247   0.00208   0.00208  -0.00208
 104        4PX        -0.00282  -0.00286  -0.00400   0.00218  -0.00218
 105        4PY        -0.00290  -0.00286   0.00218  -0.00400  -0.00218
 106        4PZ         0.00282   0.00286  -0.00218  -0.00218  -0.00400
 107        5XX         0.00018   0.00024  -0.00018  -0.00014   0.00014
 108        5YY         0.00021   0.00024  -0.00014  -0.00018   0.00014
 109        5ZZ         0.00018   0.00024  -0.00014  -0.00014   0.00018
 110        5XY         0.00001   0.00001  -0.00001  -0.00001  -0.00001
 111        5XZ         0.00000  -0.00001   0.00001  -0.00001  -0.00001
 112        5YZ        -0.00001  -0.00001  -0.00001   0.00001  -0.00001
                          21        22        23        24        25
                        (T1)--O   (T1)--O   (T1)--O   (E)--O    (E)--O
     Eigenvalues --    -6.85573  -6.85573  -6.85573  -6.85570  -6.85570
   1 1   Zn 1S          0.00000   0.00000   0.00000   0.00000   0.00000
   2        2S          0.00000   0.00000   0.00000   0.00000   0.00000
   3        2PX         0.00000   0.00000   0.00000   0.00000   0.00000
   4        2PY         0.00000   0.00000   0.00000   0.00000   0.00000
   5        2PZ         0.00000   0.00000   0.00000   0.00000   0.00000
   6        3S          0.00000   0.00000   0.00000   0.00000   0.00000
   7        3PX         0.00000   0.00000   0.00000   0.00000   0.00000
   8        3PY         0.00000   0.00000   0.00000   0.00000   0.00000
   9        3PZ         0.00000   0.00000   0.00000   0.00000   0.00000
  10        4S          0.00000   0.00000   0.00000   0.00000   0.00000
  11        4PX         0.00000   0.00000   0.00000   0.00000   0.00000
  12        4PY         0.00000   0.00000   0.00000   0.00000   0.00000
  13        4PZ         0.00000   0.00000   0.00000   0.00000   0.00000
  14        5S          0.00000   0.00000   0.00000   0.00000   0.00000
  15        5PX         0.00000   0.00000   0.00000   0.00000   0.00000
  16        5PY         0.00000   0.00000   0.00000   0.00000   0.00000
  17        5PZ         0.00000   0.00000   0.00000   0.00000   0.00000
  18        6XX         0.00000   0.00000   0.00000   0.00002   0.00005
  19        6YY         0.00000   0.00000   0.00000  -0.00006  -0.00001
  20        6ZZ         0.00000   0.00000   0.00000   0.00003  -0.00005
  21        6XY         0.00000   0.00000   0.00000   0.00000   0.00000
  22        6XZ         0.00000   0.00000   0.00000   0.00000   0.00000
  23        6YZ         0.00000   0.00000   0.00000   0.00000   0.00000
  24        7XX         0.00000   0.00000   0.00000  -0.00012  -0.00026
  25        7YY         0.00000   0.00000   0.00000   0.00028   0.00003
  26        7ZZ         0.00000   0.00000   0.00000  -0.00016   0.00023
  27        7XY         0.00000   0.00000   0.00000   0.00000   0.00000
  28        7XZ         0.00000   0.00000   0.00000   0.00000   0.00000
  29        7YZ         0.00000   0.00000   0.00000   0.00000   0.00000
  30        8F 0        0.00000   0.00000   0.00000   0.00000   0.00000
  31        8F+1        0.00000   0.00004   0.00000   0.00000   0.00000
  32        8F-1        0.00000   0.00000   0.00004   0.00000   0.00000
  33        8F+2        0.00005   0.00000   0.00000   0.00000   0.00000
  34        8F-2        0.00000   0.00000   0.00000   0.00000   0.00000
  35        8F+3        0.00000   0.00003   0.00000   0.00000   0.00000
  36        8F-3        0.00000   0.00000  -0.00003   0.00000   0.00000
  37 2   Cl 1S          0.00000   0.00000   0.00000   0.00000   0.00000
  38        2S          0.00000   0.00000   0.00000   0.00000   0.00000
  39        2PX         0.35038   0.00000   0.35038   0.16596   0.36904
  40        2PY         0.35038   0.35038   0.00000   0.40257   0.04080
  41        2PZ         0.00000   0.35038  -0.35038   0.23662  -0.32824
  42        3S          0.00000   0.00000   0.00000   0.00000   0.00000
  43        3PX         0.01012   0.00000   0.01012   0.00468   0.01042
  44        3PY         0.01012   0.01012   0.00000   0.01136   0.00115
  45        3PZ         0.00000   0.01012  -0.01012   0.00668  -0.00927
  46        4S          0.00000   0.00000   0.00000   0.00000   0.00000
  47        4PX        -0.00295   0.00000  -0.00295  -0.00120  -0.00266
  48        4PY        -0.00295  -0.00295   0.00000  -0.00290  -0.00029
  49        4PZ         0.00000  -0.00295   0.00295  -0.00171   0.00237
  50        5XX         0.00003   0.00000   0.00003   0.00002   0.00004
  51        5YY        -0.00003  -0.00003   0.00000  -0.00005   0.00000
  52        5ZZ         0.00000   0.00003  -0.00003   0.00003  -0.00004
  53        5XY         0.00000   0.00001  -0.00001   0.00002  -0.00003
  54        5XZ         0.00001   0.00001   0.00000   0.00004   0.00000
  55        5YZ         0.00001   0.00000   0.00001   0.00002   0.00003
  56 3   Cl 1S          0.00000   0.00000   0.00000   0.00000   0.00000
  57        2S          0.00000   0.00000   0.00000   0.00000   0.00000
  58        2PX        -0.35038   0.00000   0.35038  -0.16596  -0.36904
  59        2PY        -0.35038   0.35038   0.00000  -0.40257  -0.04080
  60        2PZ         0.00000  -0.35038   0.35038   0.23662  -0.32824
  61        3S          0.00000   0.00000   0.00000   0.00000   0.00000
  62        3PX        -0.01012   0.00000   0.01012  -0.00468  -0.01042
  63        3PY        -0.01012   0.01012   0.00000  -0.01136  -0.00115
  64        3PZ         0.00000  -0.01012   0.01012   0.00668  -0.00927
  65        4S          0.00000   0.00000   0.00000   0.00000   0.00000
  66        4PX         0.00295   0.00000  -0.00295   0.00120   0.00266
  67        4PY         0.00295  -0.00295   0.00000   0.00290   0.00029
  68        4PZ         0.00000   0.00295  -0.00295  -0.00171   0.00237
  69        5XX         0.00003   0.00000  -0.00003   0.00002   0.00004
  70        5YY        -0.00003   0.00003   0.00000  -0.00005   0.00000
  71        5ZZ         0.00000  -0.00003   0.00003   0.00003  -0.00004
  72        5XY         0.00000  -0.00001   0.00001   0.00002  -0.00003
  73        5XZ        -0.00001   0.00001   0.00000  -0.00004   0.00000
  74        5YZ        -0.00001   0.00000   0.00001  -0.00002  -0.00003
  75 4   Cl 1S          0.00000   0.00000   0.00000   0.00000   0.00000
  76        2S          0.00000   0.00000   0.00000   0.00000   0.00000
  77        2PX         0.35038   0.00000  -0.35038  -0.16596  -0.36904
  78        2PY        -0.35038  -0.35038   0.00000   0.40257   0.04080
  79        2PZ         0.00000   0.35038   0.35038  -0.23662   0.32824
  80        3S          0.00000   0.00000   0.00000   0.00000   0.00000
  81        3PX         0.01012   0.00000  -0.01012  -0.00468  -0.01042
  82        3PY        -0.01012  -0.01012   0.00000   0.01136   0.00115
  83        3PZ         0.00000   0.01012   0.01012  -0.00668   0.00927
  84        4S          0.00000   0.00000   0.00000   0.00000   0.00000
  85        4PX        -0.00295   0.00000   0.00295   0.00120   0.00266
  86        4PY         0.00295   0.00295   0.00000  -0.00290  -0.00029
  87        4PZ         0.00000  -0.00295  -0.00295   0.00171  -0.00237
  88        5XX        -0.00003   0.00000   0.00003   0.00002   0.00004
  89        5YY         0.00003   0.00003   0.00000  -0.00005   0.00000
  90        5ZZ         0.00000  -0.00003  -0.00003   0.00003  -0.00004
  91        5XY         0.00000   0.00001   0.00001  -0.00002   0.00003
  92        5XZ        -0.00001  -0.00001   0.00000   0.00004   0.00000
  93        5YZ         0.00001   0.00000  -0.00001  -0.00002  -0.00003
  94 5   Cl 1S          0.00000   0.00000   0.00000   0.00000   0.00000
  95        2S          0.00000   0.00000   0.00000   0.00000   0.00000
  96        2PX        -0.35038   0.00000  -0.35038   0.16596   0.36904
  97        2PY         0.35038  -0.35038   0.00000  -0.40257  -0.04080
  98        2PZ         0.00000  -0.35038  -0.35038  -0.23662   0.32824
  99        3S          0.00000   0.00000   0.00000   0.00000   0.00000
 100        3PX        -0.01012   0.00000  -0.01012   0.00468   0.01042
 101        3PY         0.01012  -0.01012   0.00000  -0.01136  -0.00115
 102        3PZ         0.00000  -0.01012  -0.01012  -0.00668   0.00927
 103        4S          0.00000   0.00000   0.00000   0.00000   0.00000
 104        4PX         0.00295   0.00000   0.00295  -0.00120  -0.00266
 105        4PY        -0.00295   0.00295   0.00000   0.00290   0.00029
 106        4PZ         0.00000   0.00295   0.00295   0.00171  -0.00237
 107        5XX        -0.00003   0.00000  -0.00003   0.00002   0.00004
 108        5YY         0.00003  -0.00003   0.00000  -0.00005   0.00000
 109        5ZZ         0.00000   0.00003   0.00003   0.00003  -0.00004
 110        5XY         0.00000  -0.00001  -0.00001  -0.00002   0.00003
 111        5XZ         0.00001  -0.00001   0.00000  -0.00004   0.00000
 112        5YZ        -0.00001   0.00000  -0.00001   0.00002   0.00003
                          26        27        28        29        30
                        (A1)--O   (T2)--O   (T2)--O   (T2)--O   (A1)--O
     Eigenvalues --    -4.48427  -2.87612  -2.87612  -2.87612  -0.45071
   1 1   Zn 1S         -0.11704   0.00000   0.00000   0.00000  -0.00446
   2        2S         -0.45803   0.00000   0.00000   0.00000  -0.01778
   3        2PX         0.00000   0.00000   0.00000  -0.38119   0.00000
   4        2PY         0.00000   0.00000  -0.38119   0.00000   0.00000
   5        2PZ         0.00000  -0.38119   0.00000   0.00000   0.00000
   6        3S          1.06927   0.00000   0.00000   0.00000   0.04921
   7        3PX         0.00000   0.00000   0.00000   1.06693   0.00000
   8        3PY         0.00000   0.00000   1.06693   0.00000   0.00000
   9        3PZ         0.00000   1.06693   0.00000   0.00000   0.00000
  10        4S         -0.00353   0.00000   0.00000   0.00000  -0.07632
  11        4PX         0.00000   0.00000   0.00000   0.00240   0.00000
  12        4PY         0.00000   0.00000   0.00240   0.00000   0.00000
  13        4PZ         0.00000   0.00240   0.00000   0.00000   0.00000
  14        5S         -0.00054   0.00000   0.00000   0.00000  -0.00682
  15        5PX         0.00000   0.00000   0.00000  -0.00029   0.00000
  16        5PY         0.00000   0.00000  -0.00029   0.00000   0.00000
  17        5PZ         0.00000  -0.00029   0.00000   0.00000   0.00000
  18        6XX        -0.00686   0.00000   0.00000   0.00000   0.00037
  19        6YY        -0.00686   0.00000   0.00000   0.00000   0.00037
  20        6ZZ        -0.00686   0.00000   0.00000   0.00000   0.00037
  21        6XY         0.00000   0.00015   0.00000   0.00000   0.00000
  22        6XZ         0.00000   0.00000   0.00015   0.00000   0.00000
  23        6YZ         0.00000   0.00000   0.00000   0.00015   0.00000
  24        7XX        -0.00214   0.00000   0.00000   0.00000   0.00385
  25        7YY        -0.00214   0.00000   0.00000   0.00000   0.00385
  26        7ZZ        -0.00214   0.00000   0.00000   0.00000   0.00385
  27        7XY         0.00000  -0.00008   0.00000   0.00000   0.00000
  28        7XZ         0.00000   0.00000  -0.00008   0.00000   0.00000
  29        7YZ         0.00000   0.00000   0.00000  -0.00008   0.00000
  30        8F 0        0.00000  -0.00006   0.00000   0.00000   0.00000
  31        8F+1        0.00000   0.00000   0.00000   0.00004   0.00000
  32        8F-1        0.00000   0.00000   0.00004   0.00000   0.00000
  33        8F+2        0.00000   0.00000   0.00000   0.00000   0.00000
  34        8F-2        0.00006   0.00000   0.00000   0.00000   0.00465
  35        8F+3        0.00000   0.00000   0.00000  -0.00005   0.00000
  36        8F-3        0.00000   0.00000   0.00005   0.00000   0.00000
  37 2   Cl 1S          0.00000  -0.00002   0.00002  -0.00002   0.04153
  38        2S          0.00005   0.00015  -0.00015   0.00015  -0.18927
  39        2PX         0.00004   0.00011  -0.00011   0.00010  -0.00379
  40        2PY        -0.00004  -0.00011   0.00010  -0.00011   0.00379
  41        2PZ         0.00004   0.00010  -0.00011   0.00011  -0.00379
  42        3S          0.00025   0.00014  -0.00014   0.00014   0.37021
  43        3PX        -0.00005  -0.00018   0.00018  -0.00019   0.00952
  44        3PY         0.00005   0.00018  -0.00019   0.00018  -0.00952
  45        3PZ        -0.00005  -0.00019   0.00018  -0.00018   0.00952
  46        4S         -0.00056  -0.00035   0.00035  -0.00035   0.17379
  47        4PX        -0.00029  -0.00019   0.00019  -0.00008   0.00051
  48        4PY         0.00029   0.00019  -0.00008   0.00019  -0.00051
  49        4PZ        -0.00029  -0.00008   0.00019  -0.00019   0.00051
  50        5XX        -0.00005  -0.00009   0.00009  -0.00001  -0.00419
  51        5YY        -0.00005  -0.00009   0.00001  -0.00009  -0.00419
  52        5ZZ        -0.00005  -0.00001   0.00009  -0.00009  -0.00419
  53        5XY         0.00011   0.00022  -0.00017   0.00017  -0.00283
  54        5XZ        -0.00011  -0.00017   0.00022  -0.00017   0.00283
  55        5YZ         0.00011   0.00017  -0.00017   0.00022  -0.00283
  56 3   Cl 1S          0.00000  -0.00002  -0.00002   0.00002   0.04153
  57        2S          0.00005   0.00015   0.00015  -0.00015  -0.18927
  58        2PX        -0.00004  -0.00011  -0.00011   0.00010   0.00379
  59        2PY         0.00004   0.00011   0.00010  -0.00011  -0.00379
  60        2PZ         0.00004   0.00010   0.00011  -0.00011  -0.00379
  61        3S          0.00025   0.00014   0.00014  -0.00014   0.37021
  62        3PX         0.00005   0.00018   0.00018  -0.00019  -0.00952
  63        3PY        -0.00005  -0.00018  -0.00019   0.00018   0.00952
  64        3PZ        -0.00005  -0.00019  -0.00018   0.00018   0.00952
  65        4S         -0.00056  -0.00035  -0.00035   0.00035   0.17379
  66        4PX         0.00029   0.00019   0.00019  -0.00008  -0.00051
  67        4PY        -0.00029  -0.00019  -0.00008   0.00019   0.00051
  68        4PZ        -0.00029  -0.00008  -0.00019   0.00019   0.00051
  69        5XX        -0.00005  -0.00009  -0.00009   0.00001  -0.00419
  70        5YY        -0.00005  -0.00009  -0.00001   0.00009  -0.00419
  71        5ZZ        -0.00005  -0.00001  -0.00009   0.00009  -0.00419
  72        5XY         0.00011   0.00022   0.00017  -0.00017  -0.00283
  73        5XZ         0.00011   0.00017   0.00022  -0.00017  -0.00283
  74        5YZ        -0.00011  -0.00017  -0.00017   0.00022   0.00283
  75 4   Cl 1S          0.00000   0.00002   0.00002   0.00002   0.04153
  76        2S          0.00005  -0.00015  -0.00015  -0.00015  -0.18927
  77        2PX        -0.00004   0.00011   0.00011   0.00010   0.00379
  78        2PY        -0.00004   0.00011   0.00010   0.00011   0.00379
  79        2PZ        -0.00004   0.00010   0.00011   0.00011   0.00379
  80        3S          0.00025  -0.00014  -0.00014  -0.00014   0.37021
  81        3PX         0.00005  -0.00018  -0.00018  -0.00019  -0.00952
  82        3PY         0.00005  -0.00018  -0.00019  -0.00018  -0.00952
  83        3PZ         0.00005  -0.00019  -0.00018  -0.00018  -0.00952
  84        4S         -0.00056   0.00035   0.00035   0.00035   0.17379
  85        4PX         0.00029  -0.00019  -0.00019  -0.00008  -0.00051
  86        4PY         0.00029  -0.00019  -0.00008  -0.00019  -0.00051
  87        4PZ         0.00029  -0.00008  -0.00019  -0.00019  -0.00051
  88        5XX        -0.00005   0.00009   0.00009   0.00001  -0.00419
  89        5YY        -0.00005   0.00009   0.00001   0.00009  -0.00419
  90        5ZZ        -0.00005   0.00001   0.00009   0.00009  -0.00419
  91        5XY        -0.00011   0.00022   0.00017   0.00017   0.00283
  92        5XZ        -0.00011   0.00017   0.00022   0.00017   0.00283
  93        5YZ        -0.00011   0.00017   0.00017   0.00022   0.00283
  94 5   Cl 1S          0.00000   0.00002  -0.00002  -0.00002   0.04153
  95        2S          0.00005  -0.00015   0.00015   0.00015  -0.18927
  96        2PX         0.00004  -0.00011   0.00011   0.00010  -0.00379
  97        2PY         0.00004  -0.00011   0.00010   0.00011  -0.00379
  98        2PZ        -0.00004   0.00010  -0.00011  -0.00011   0.00379
  99        3S          0.00025  -0.00014   0.00014   0.00014   0.37021
 100        3PX        -0.00005   0.00018  -0.00018  -0.00019   0.00952
 101        3PY        -0.00005   0.00018  -0.00019  -0.00018   0.00952
 102        3PZ         0.00005  -0.00019   0.00018   0.00018  -0.00952
 103        4S         -0.00056   0.00035  -0.00035  -0.00035   0.17379
 104        4PX        -0.00029   0.00019  -0.00019  -0.00008   0.00051
 105        4PY        -0.00029   0.00019  -0.00008  -0.00019   0.00051
 106        4PZ         0.00029  -0.00008   0.00019   0.00019  -0.00051
 107        5XX        -0.00005   0.00009  -0.00009  -0.00001  -0.00419
 108        5YY        -0.00005   0.00009  -0.00001  -0.00009  -0.00419
 109        5ZZ        -0.00005   0.00001  -0.00009  -0.00009  -0.00419
 110        5XY        -0.00011   0.00022  -0.00017  -0.00017   0.00283
 111        5XZ         0.00011  -0.00017   0.00022   0.00017  -0.00283
 112        5YZ         0.00011  -0.00017   0.00017   0.00022  -0.00283
                          31        32        33        34        35
                        (T2)--O   (T2)--O   (T2)--O   (T2)--O   (T2)--O
     Eigenvalues --    -0.44357  -0.44357  -0.44357  -0.14222  -0.14222
   1 1   Zn 1S          0.00000   0.00000   0.00000   0.00000   0.00000
   2        2S          0.00000   0.00000   0.00000   0.00000   0.00000
   3        2PX         0.00000  -0.00822   0.00000   0.00000   0.00000
   4        2PY         0.00000   0.00000   0.00822   0.00000  -0.00029
   5        2PZ        -0.00822   0.00000   0.00000  -0.00029   0.00000
   6        3S          0.00000   0.00000   0.00000   0.00000   0.00000
   7        3PX         0.00000   0.02158   0.00000   0.00000   0.00000
   8        3PY         0.00000   0.00000  -0.02158   0.00000  -0.00405
   9        3PZ         0.02158   0.00000   0.00000  -0.00405   0.00000
  10        4S          0.00000   0.00000   0.00000   0.00000   0.00000
  11        4PX         0.00000  -0.03406   0.00000   0.00000   0.00000
  12        4PY         0.00000   0.00000   0.03406   0.00000  -0.04079
  13        4PZ        -0.03406   0.00000   0.00000  -0.04079   0.00000
  14        5S          0.00000   0.00000   0.00000   0.00000   0.00000
  15        5PX         0.00000   0.01293   0.00000   0.00000   0.00000
  16        5PY         0.00000   0.00000  -0.01293   0.00000  -0.07185
  17        5PZ         0.01293   0.00000   0.00000  -0.07185   0.00000
  18        6XX         0.00000   0.00000   0.00000   0.00000   0.00000
  19        6YY         0.00000   0.00000   0.00000   0.00000   0.00000
  20        6ZZ         0.00000   0.00000   0.00000   0.00000   0.00000
  21        6XY        -0.03665   0.00000   0.00000   0.71765   0.00000
  22        6XZ         0.00000   0.00000   0.03665   0.00000   0.71765
  23        6YZ         0.00000  -0.03665   0.00000   0.00000   0.00000
  24        7XX         0.00000   0.00000   0.00000   0.00000   0.00000
  25        7YY         0.00000   0.00000   0.00000   0.00000   0.00000
  26        7ZZ         0.00000   0.00000   0.00000   0.00000   0.00000
  27        7XY        -0.02808   0.00000   0.00000   0.41741   0.00000
  28        7XZ         0.00000   0.00000   0.02808   0.00000   0.41741
  29        7YZ         0.00000  -0.02808   0.00000   0.00000   0.00000
  30        8F 0        0.00226   0.00000   0.00000  -0.00025   0.00000
  31        8F+1        0.00000  -0.00138   0.00000   0.00000   0.00000
  32        8F-1        0.00000   0.00000   0.00138   0.00000   0.00015
  33        8F+2        0.00000   0.00000   0.00000   0.00000   0.00000
  34        8F-2        0.00000   0.00000   0.00000   0.00000   0.00000
  35        8F+3        0.00000   0.00179   0.00000   0.00000   0.00000
  36        8F-3        0.00000   0.00000   0.00179   0.00000   0.00020
  37 2   Cl 1S          0.04221   0.04221   0.04221   0.00388  -0.00388
  38        2S         -0.19275  -0.19275  -0.19275  -0.01320   0.01320
  39        2PX        -0.00272  -0.00210  -0.00272   0.01323  -0.01323
  40        2PY         0.00272   0.00272   0.00210  -0.01323   0.02305
  41        2PZ        -0.00210  -0.00272  -0.00272   0.02305  -0.01323
  42        3S          0.37628   0.37628   0.37628   0.05032  -0.05032
  43        3PX         0.00675   0.00516   0.00675  -0.03135   0.03135
  44        3PY        -0.00675  -0.00675  -0.00516   0.03135  -0.05529
  45        3PZ         0.00516   0.00675   0.00675  -0.05529   0.03135
  46        4S          0.18236   0.18236   0.18236  -0.04243   0.04243
  47        4PX         0.00148   0.00167   0.00148  -0.03836   0.03836
  48        4PY        -0.00148  -0.00148  -0.00167   0.03836  -0.04773
  49        4PZ         0.00167   0.00148   0.00148  -0.04773   0.03836
  50        5XX        -0.00481  -0.00484  -0.00481   0.00237  -0.00237
  51        5YY        -0.00481  -0.00481  -0.00484   0.00237   0.00167
  52        5ZZ        -0.00484  -0.00481  -0.00481  -0.00167  -0.00237
  53        5XY        -0.00276  -0.00257  -0.00257   0.00536  -0.00690
  54        5XZ         0.00257   0.00257   0.00276  -0.00690   0.00536
  55        5YZ        -0.00257  -0.00276  -0.00257   0.00690  -0.00690
  56 3   Cl 1S          0.04221  -0.04221  -0.04221   0.00388   0.00388
  57        2S         -0.19275   0.19275   0.19275  -0.01320  -0.01320
  58        2PX         0.00272  -0.00210  -0.00272  -0.01323  -0.01323
  59        2PY        -0.00272   0.00272   0.00210   0.01323   0.02305
  60        2PZ        -0.00210   0.00272   0.00272   0.02305   0.01323
  61        3S          0.37628  -0.37628  -0.37628   0.05032   0.05032
  62        3PX        -0.00675   0.00516   0.00675   0.03135   0.03135
  63        3PY         0.00675  -0.00675  -0.00516  -0.03135  -0.05529
  64        3PZ         0.00516  -0.00675  -0.00675  -0.05529  -0.03135
  65        4S          0.18236  -0.18236  -0.18236  -0.04243  -0.04243
  66        4PX        -0.00148   0.00167   0.00148   0.03836   0.03836
  67        4PY         0.00148  -0.00148  -0.00167  -0.03836  -0.04773
  68        4PZ         0.00167  -0.00148  -0.00148  -0.04773  -0.03836
  69        5XX        -0.00481   0.00484   0.00481   0.00237   0.00237
  70        5YY        -0.00481   0.00481   0.00484   0.00237  -0.00167
  71        5ZZ        -0.00484   0.00481   0.00481  -0.00167   0.00237
  72        5XY        -0.00276   0.00257   0.00257   0.00536   0.00690
  73        5XZ        -0.00257   0.00257   0.00276   0.00690   0.00536
  74        5YZ         0.00257  -0.00276  -0.00257  -0.00690  -0.00690
  75 4   Cl 1S         -0.04221  -0.04221   0.04221  -0.00388  -0.00388
  76        2S          0.19275   0.19275  -0.19275   0.01320   0.01320
  77        2PX        -0.00272  -0.00210   0.00272   0.01323   0.01323
  78        2PY        -0.00272  -0.00272   0.00210   0.01323   0.02305
  79        2PZ        -0.00210  -0.00272   0.00272   0.02305   0.01323
  80        3S         -0.37628  -0.37628   0.37628  -0.05032  -0.05032
  81        3PX         0.00675   0.00516  -0.00675  -0.03135  -0.03135
  82        3PY         0.00675   0.00675  -0.00516  -0.03135  -0.05529
  83        3PZ         0.00516   0.00675  -0.00675  -0.05529  -0.03135
  84        4S         -0.18236  -0.18236   0.18236   0.04243   0.04243
  85        4PX         0.00148   0.00167  -0.00148  -0.03836  -0.03836
  86        4PY         0.00148   0.00148  -0.00167  -0.03836  -0.04773
  87        4PZ         0.00167   0.00148  -0.00148  -0.04773  -0.03836
  88        5XX         0.00481   0.00484  -0.00481  -0.00237  -0.00237
  89        5YY         0.00481   0.00481  -0.00484  -0.00237   0.00167
  90        5ZZ         0.00484   0.00481  -0.00481   0.00167  -0.00237
  91        5XY        -0.00276  -0.00257   0.00257   0.00536   0.00690
  92        5XZ        -0.00257  -0.00257   0.00276   0.00690   0.00536
  93        5YZ        -0.00257  -0.00276   0.00257   0.00690   0.00690
  94 5   Cl 1S         -0.04221   0.04221  -0.04221  -0.00388   0.00388
  95        2S          0.19275  -0.19275   0.19275   0.01320  -0.01320
  96        2PX         0.00272  -0.00210   0.00272  -0.01323   0.01323
  97        2PY         0.00272  -0.00272   0.00210  -0.01323   0.02305
  98        2PZ        -0.00210   0.00272  -0.00272   0.02305  -0.01323
  99        3S         -0.37628   0.37628  -0.37628  -0.05032   0.05032
 100        3PX        -0.00675   0.00516  -0.00675   0.03135  -0.03135
 101        3PY        -0.00675   0.00675  -0.00516   0.03135  -0.05529
 102        3PZ         0.00516  -0.00675   0.00675  -0.05529   0.03135
 103        4S         -0.18236   0.18236  -0.18236   0.04243  -0.04243
 104        4PX        -0.00148   0.00167  -0.00148   0.03836  -0.03836
 105        4PY        -0.00148   0.00148  -0.00167   0.03836  -0.04773
 106        4PZ         0.00167  -0.00148   0.00148  -0.04773   0.03836
 107        5XX         0.00481  -0.00484   0.00481  -0.00237   0.00237
 108        5YY         0.00481  -0.00481   0.00484  -0.00237  -0.00167
 109        5ZZ         0.00484  -0.00481   0.00481   0.00167   0.00237
 110        5XY        -0.00276   0.00257  -0.00257   0.00536  -0.00690
 111        5XZ         0.00257  -0.00257   0.00276  -0.00690   0.00536
 112        5YZ         0.00257  -0.00276   0.00257  -0.00690   0.00690
                          36        37        38        39        40
                        (T2)--O   (E)--O    (E)--O    (A1)--O   (T2)--O
     Eigenvalues --    -0.14222  -0.13638  -0.13638  -0.06435  -0.00616
   1 1   Zn 1S          0.00000   0.00000   0.00000   0.01544   0.00000
   2        2S          0.00000   0.00000   0.00000   0.06348   0.00000
   3        2PX        -0.00029   0.00000   0.00000   0.00000   0.02559
   4        2PY         0.00000   0.00000   0.00000   0.00000   0.00000
   5        2PZ         0.00000   0.00000   0.00000   0.00000   0.00000
   6        3S          0.00000   0.00000   0.00000  -0.16935   0.00000
   7        3PX        -0.00405   0.00000   0.00000   0.00000  -0.06212
   8        3PY         0.00000   0.00000   0.00000   0.00000   0.00000
   9        3PZ         0.00000   0.00000   0.00000   0.00000   0.00000
  10        4S          0.00000   0.00000   0.00000   0.33286   0.00000
  11        4PX        -0.04079   0.00000   0.00000   0.00000   0.15921
  12        4PY         0.00000   0.00000   0.00000   0.00000   0.00000
  13        4PZ         0.00000   0.00000   0.00000   0.00000   0.00000
  14        5S          0.00000   0.00000   0.00000  -0.01643   0.00000
  15        5PX        -0.07185   0.00000   0.00000   0.00000   0.04553
  16        5PY         0.00000   0.00000   0.00000   0.00000   0.00000
  17        5PZ         0.00000   0.00000   0.00000   0.00000   0.00000
  18        6XX         0.00000  -0.20182   0.71101  -0.00166   0.00000
  19        6YY         0.00000  -0.51485  -0.53029  -0.00166   0.00000
  20        6ZZ         0.00000   0.71666  -0.18073  -0.00166   0.00000
  21        6XY         0.00000   0.00000   0.00000   0.00000   0.00000
  22        6XZ         0.00000   0.00000   0.00000   0.00000   0.00000
  23        6YZ         0.71765   0.00000   0.00000   0.00000  -0.10391
  24        7XX         0.00000  -0.11746   0.41381  -0.01625   0.00000
  25        7YY         0.00000  -0.29964  -0.30863  -0.01625   0.00000
  26        7ZZ         0.00000   0.41710  -0.10519  -0.01625   0.00000
  27        7XY         0.00000   0.00000   0.00000   0.00000   0.00000
  28        7XZ         0.00000   0.00000   0.00000   0.00000   0.00000
  29        7YZ         0.41741   0.00000   0.00000   0.00000  -0.05282
  30        8F 0        0.00000   0.00000   0.00000   0.00000   0.00000
  31        8F+1        0.00015   0.00000   0.00000   0.00000   0.00126
  32        8F-1        0.00000   0.00000   0.00000   0.00000   0.00000
  33        8F+2        0.00000   0.00000   0.00000   0.00000   0.00000
  34        8F-2        0.00000   0.00000   0.00000  -0.00631   0.00000
  35        8F+3       -0.00020   0.00000   0.00000   0.00000  -0.00163
  36        8F-3        0.00000   0.00000   0.00000   0.00000   0.00000
  37 2   Cl 1S          0.00388   0.00000   0.00000   0.00745   0.00185
  38        2S         -0.01320   0.00000   0.00000  -0.03347  -0.01032
  39        2PX         0.02305  -0.00307   0.01083   0.06525  -0.00509
  40        2PY        -0.01323   0.00784   0.00808  -0.06525  -0.09159
  41        2PZ         0.01323   0.01092  -0.00275   0.06525   0.09159
  42        3S          0.05032   0.00000   0.00000   0.07544   0.01402
  43        3PX        -0.05529   0.00649  -0.02287  -0.16173   0.01298
  44        3PY         0.03135  -0.01656  -0.01706   0.16173   0.22944
  45        3PZ        -0.03135  -0.02305   0.00581  -0.16173  -0.22944
  46        4S         -0.04243   0.00000   0.00000   0.04824   0.04880
  47        4PX        -0.04773   0.01015  -0.03577  -0.08871   0.01358
  48        4PY         0.03836  -0.02590  -0.02668   0.08871   0.12837
  49        4PZ        -0.03836  -0.03606   0.00909  -0.08871  -0.12837
  50        5XX        -0.00167   0.00113  -0.00399  -0.00249   0.00226
  51        5YY         0.00237   0.00289   0.00298  -0.00249  -0.00414
  52        5ZZ         0.00237  -0.00403   0.00102  -0.00249  -0.00414
  53        5XY         0.00690  -0.00274   0.00069   0.00683   0.00086
  54        5XZ        -0.00690  -0.00197  -0.00203  -0.00683  -0.00086
  55        5YZ         0.00536   0.00077  -0.00272   0.00683   0.00474
  56 3   Cl 1S         -0.00388   0.00000   0.00000   0.00745  -0.00185
  57        2S          0.01320   0.00000   0.00000  -0.03347   0.01032
  58        2PX         0.02305   0.00307  -0.01083  -0.06525  -0.00509
  59        2PY        -0.01323  -0.00784  -0.00808   0.06525  -0.09159
  60        2PZ        -0.01323   0.01092  -0.00275   0.06525  -0.09159
  61        3S         -0.05032   0.00000   0.00000   0.07544  -0.01402
  62        3PX        -0.05529  -0.00649   0.02287   0.16173   0.01298
  63        3PY         0.03135   0.01656   0.01706  -0.16173   0.22944
  64        3PZ         0.03135  -0.02305   0.00581  -0.16173   0.22944
  65        4S          0.04243   0.00000   0.00000   0.04824  -0.04880
  66        4PX        -0.04773  -0.01015   0.03577   0.08871   0.01358
  67        4PY         0.03836   0.02590   0.02668  -0.08871   0.12837
  68        4PZ         0.03836  -0.03606   0.00909  -0.08871   0.12837
  69        5XX         0.00167   0.00113  -0.00399  -0.00249  -0.00226
  70        5YY        -0.00237   0.00289   0.00298  -0.00249   0.00414
  71        5ZZ        -0.00237  -0.00403   0.00102  -0.00249   0.00414
  72        5XY        -0.00690  -0.00274   0.00069   0.00683  -0.00086
  73        5XZ        -0.00690   0.00197   0.00203   0.00683  -0.00086
  74        5YZ         0.00536  -0.00077   0.00272  -0.00683   0.00474
  75 4   Cl 1S         -0.00388   0.00000   0.00000   0.00745  -0.00185
[...]
       -------------------------------
              Total Lewis   99.64581  ( 99.6458%)
        Valence non-Lewis    0.30587  (  0.3059%)
        Rydberg non-Lewis    0.04832  (  0.0483%)
       -------------------------------
            Total unit  1  100.00000  (100.0000%)
           Charge unit  1   -2.00000
 Calling FoFJK, ICntrl=    100127 FMM=F ISym2X=1 I1Cent= 0 IOpClX= 0 NMat=1 NMatS=1 NMatT=0.
 Full mass-weighted force constant matrix:
 Low frequencies ---    0.0091    0.0091    0.0097   10.8841   10.8841   10.8841
 Low frequencies ---   78.5452   78.5452  126.6746
 Diagonal vibrational polarizability:
       61.8894928      61.8894928      61.8894928
 Harmonic frequencies (cm**-1), IR intensities (KM/Mole), Raman scattering
 activities (A**4/AMU), depolarization ratios for plane and unpolarized
 incident light, reduced masses (AMU), force constants (mDyne/A),
 and normal coordinates:
                      1                      2                      3
                      E                      E                     T2
 Frequencies --     78.5452                78.5452               126.6746
 Red. masses --     34.9689                34.9689                38.8186
 Frc consts  --      0.1271                 0.1271                 0.3670
 IR Inten    --      0.0000                 0.0000                 9.0997
  Atom  AN      X      Y      Z        X      Y      Z        X      Y      Z
     1  30     0.00   0.00   0.00     0.00   0.00   0.00    -0.01   0.35  -0.10
     2  17    -0.11   0.28   0.40     0.39   0.29  -0.10    -0.37  -0.07  -0.26
     3  17     0.11  -0.28   0.40    -0.39  -0.29  -0.10    -0.21  -0.23   0.35
     4  17     0.11   0.28  -0.40    -0.39   0.29   0.10     0.22  -0.25   0.33
     5  17    -0.11  -0.28  -0.40     0.39  -0.29   0.10     0.39  -0.09  -0.24
                      4                      5                      6
                     T2                     T2                     A1
 Frequencies --    126.6746               126.6746               232.1478
 Red. masses --     38.8186                38.8186                34.9689
 Frc consts  --      0.3670                 0.3670                 1.1104
 IR Inten    --      9.0997                 9.0997                 0.0000
  Atom  AN      X      Y      Z        X      Y      Z        X      Y      Z
     1  30    -0.10   0.09   0.34     0.35   0.04   0.10     0.00   0.00   0.00
     2  17     0.25  -0.24  -0.32    -0.11  -0.39   0.22     0.29  -0.29   0.29
     3  17    -0.31   0.33   0.01    -0.28  -0.23  -0.30    -0.29   0.29   0.29
     4  17     0.41   0.15  -0.16    -0.04   0.36   0.28    -0.29  -0.29  -0.29
     5  17    -0.16  -0.41  -0.14    -0.21   0.19  -0.37     0.29   0.29  -0.29
                      7                      8                      9
                     T2                     T2                     T2
 Frequencies --    232.2047               232.2047               232.2047
 Red. masses --     44.3617                44.3617                44.3617
 Frc consts  --      1.4093                 1.4093                 1.4093
 IR Inten    --     93.4247                93.4247                93.4247
  Atom  AN      X      Y      Z        X      Y      Z        X      Y      Z
     1  30     0.57   0.00   0.00     0.00   0.55   0.16     0.00  -0.16   0.55
     2  17    -0.26   0.23  -0.23     0.15  -0.19   0.14    -0.28   0.29  -0.31
     3  17    -0.26   0.22   0.22     0.28  -0.32  -0.29     0.15  -0.14  -0.19
     4  17    -0.26  -0.23  -0.23    -0.28  -0.31  -0.29    -0.15  -0.14  -0.18
     5  17    -0.26  -0.22   0.22    -0.15  -0.18   0.14     0.28   0.29  -0.32

 -------------------
 - Thermochemistry -
 -------------------
 Temperature   298.150 Kelvin.  Pressure   1.00000 Atm.
 Atom     1 has atomic number 30 and mass  63.92915
 Atom     2 has atomic number 17 and mass  34.96885
 Atom     3 has atomic number 17 and mass  34.96885
 Atom     4 has atomic number 17 and mass  34.96885
 Atom     5 has atomic number 17 and mass  34.96885
 Molecular mass:   203.80456 amu.
 Principal axes and moments of inertia in atomic units:
                           1         2         3
     Eigenvalues --  1859.753921859.753921859.75392
           X            0.00000   0.00000   1.00000
           Y            0.00000   1.00000   0.00000
           Z            1.00000   0.00000   0.00000
 This molecule is a spherical top.
 Rotational symmetry number 12.
 Warning -- assumption of classical behavior for rotation
           may cause significant error
 Rotational temperatures (Kelvin)      0.04657     0.04657     0.04657
 Rotational constants (GHZ):           0.97042     0.97042     0.97042
 Zero-point vibrational energy       8767.9 (Joules/Mol)
                                    2.09558 (Kcal/Mol)
 Warning -- explicit consideration of   9 degrees of freedom as
           vibrations may cause significant error
 Vibrational temperatures:    113.01   113.01   182.26   182.26   182.26
          (Kelvin)            334.01   334.09   334.09   334.09
 
 Zero-point correction=                           0.003340 (Hartree/Particle)
 Thermal correction to Energy=                    0.011828
 Thermal correction to Enthalpy=                  0.012772
 Thermal correction to Gibbs Free Energy=        -0.030672
 Sum of electronic and zero-point Energies=          -3620.158318
 Sum of electronic and thermal Energies=             -3620.149830
 Sum of electronic and thermal Enthalpies=           -3620.148886
 Sum of electronic and thermal Free Energies=        -3620.192329
 
                     E (Thermal)             CV                S
                      KCal/Mol        Cal/Mol-Kelvin    Cal/Mol-Kelvin
 Total                    7.422             22.835             91.435
 Electronic               0.000              0.000              0.000
 Translational            0.889              2.981             41.840
 Rotational               0.889              2.981             25.305
 Vibrational              5.644             16.873             24.289
 Vibration     1          0.600              1.964              3.927
 Vibration     2          0.600              1.964              3.927
 Vibration     3          0.611              1.926              2.996
 Vibration     4          0.611              1.926              2.996
 Vibration     5          0.611              1.926              2.996
 Vibration     6          0.653              1.792              1.862
 Vibration     7          0.653              1.792              1.862
 Vibration     8          0.653              1.792              1.862
 Vibration     9          0.653              1.792              1.862
                       Q            Log10(Q)             Ln(Q)
 Total Bot       0.128248D+15         14.108051         32.484988
 Total V=0       0.440675D+16         15.644118         36.021914
 Vib (Bot)       0.148227D+02          1.170929          2.696163
 Vib (Bot)    1  0.262256D+01          0.418725          0.964150
 Vib (Bot)    2  0.262256D+01          0.418725          0.964150
 Vib (Bot)    3  0.161069D+01          0.207011          0.476660
 Vib (Bot)    4  0.161069D+01          0.207011          0.476660
 Vib (Bot)    5  0.161069D+01          0.207011          0.476660
 Vib (Bot)    6  0.847617D+00         -0.071800         -0.165326
 Vib (Bot)    7  0.847388D+00         -0.071918         -0.165597
 Vib (Bot)    8  0.847388D+00         -0.071918         -0.165597
 Vib (Bot)    9  0.847388D+00         -0.071918         -0.165597
 Vib (V=0)       0.509326D+03          2.706996          6.233089
 Vib (V=0)    1  0.316980D+01          0.501031          1.153667
 Vib (V=0)    2  0.316980D+01          0.501031          1.153667
 Vib (V=0)    3  0.218651D+01          0.339751          0.782306
 Vib (V=0)    4  0.218651D+01          0.339751          0.782306
 Vib (V=0)    5  0.218651D+01          0.339751          0.782306
 Vib (V=0)    6  0.148410D+01          0.171463          0.394809
 Vib (V=0)    7  0.148390D+01          0.171406          0.394676
 Vib (V=0)    8  0.148390D+01          0.171406          0.394676
 Vib (V=0)    9  0.148390D+01          0.171406          0.394676
 Electronic      0.100000D+01          0.000000          0.000000
 Translational   0.114360D+09          8.058275         18.554863
 Rotational      0.756567D+05          4.878848         11.233962
 ***** Axes restored to original set *****
 -------------------------------------------------------------------
 Center     Atomic                   Forces (Hartrees/Bohr)
 Number     Number              X              Y              Z
 -------------------------------------------------------------------
      1       30           0.000000000    0.000000000    0.000000000
      2       17          -0.000001400    0.000001400   -0.000001400
      3       17           0.000001400   -0.000001400   -0.000001400
      4       17           0.000001400    0.000001400    0.000001400
      5       17          -0.000001400   -0.000001400    0.000001400
 -------------------------------------------------------------------
 Cartesian Forces:  Max     0.000001400 RMS     0.000001252
 FormGI is forming the generalized inverse of G from B-inverse, IUseBI=4.

 GradGradGradGradGradGradGradGradGradGradGradGradGradGradGradGradGradGrad
 Berny optimization.
 Internal  Forces:  Max     0.000002425 RMS     0.000001296
 Search for a local minimum.
 Step number   1 out of a maximum of    2
 All quantities printed in internal units (Hartrees-Bohrs-Radians)
 Second derivative matrix not updated -- analytic derivatives used.
 The second derivative matrix:
                          R1        R2        R3        R4        A1
           R1           0.05003
           R2           0.00710   0.05003
           R3           0.00710   0.00710   0.05003
           R4           0.00710   0.00710   0.00710   0.05003
           A1           0.00123   0.00123  -0.00077  -0.00169   0.00976
           A2           0.00193  -0.00050   0.00215  -0.00358  -0.00195
           A3           0.00377  -0.00302  -0.00335   0.00260  -0.00557
           A4          -0.00050   0.00193   0.00215  -0.00358  -0.00195
           A5          -0.00302   0.00377  -0.00335   0.00260  -0.00557
           A6          -0.00341  -0.00341   0.00318   0.00363   0.00528
           D1          -0.00238  -0.00238  -0.00168   0.00645  -0.00957
           D2           0.00196   0.00196  -0.00505   0.00112   0.00513
           D3          -0.00258   0.00455  -0.00252   0.00056   0.00257
           D4          -0.00455   0.00258   0.00252  -0.00056  -0.00257
                          A2        A3        A4        A5        A6
           A2           0.02082
           A3          -0.01126   0.04056
           A4           0.00325   0.00373   0.02082
           A5           0.00373  -0.01564  -0.01126   0.04056
           A6          -0.01458  -0.01182  -0.01458  -0.01182   0.04751
           D1          -0.01235   0.01144  -0.01235   0.01144   0.01139
           D2          -0.00700   0.00844  -0.00700   0.00844  -0.00801
           D3          -0.00967  -0.00381   0.00267   0.01225  -0.00400
           D4          -0.00267  -0.01225   0.00967   0.00381   0.00400
                          D1        D2        D3        D4
           D1           0.02684
           D2           0.00229   0.01662
           D3           0.00115   0.00831   0.01663
           D4          -0.00115  -0.00831   0.00832   0.01663
 ITU=  0
     Eigenvalues ---    0.02673   0.03017   0.03749   0.04257   0.04384
     Eigenvalues ---    0.06545   0.06766   0.07132   0.07166
 Angle between quadratic step and forces=   0.00 degrees.
 Linear search not attempted -- first point.
 Iteration  1 RMS(Cart)=  0.00001818 RMS(Int)=  0.00000000
 Iteration  2 RMS(Cart)=  0.00000000 RMS(Int)=  0.00000000
 ClnCor:  largest displacement from symmetrization is 6.72D-12 for atom     5.
 Variable       Old X    -DE/DX   Delta X   Delta X   Delta X     New X
                                 (Linear)    (Quad)   (Total)
    R1        4.46584   0.00000   0.00000   0.00003   0.00003   4.46587
    R2        4.46584   0.00000   0.00000   0.00003   0.00003   4.46587
    R3        4.46584   0.00000   0.00000   0.00003   0.00003   4.46587
    R4        4.46584   0.00000   0.00000   0.00003   0.00003   4.46587
    A1        1.91063   0.00000   0.00000   0.00000   0.00000   1.91063
    A2        1.91063   0.00000   0.00000   0.00000   0.00000   1.91063
    A3        1.91063   0.00000   0.00000   0.00000   0.00000   1.91063
    A4        1.91063   0.00000   0.00000   0.00000   0.00000   1.91063
    A5        1.91063   0.00000   0.00000   0.00000   0.00000   1.91063
    A6        1.91063   0.00000   0.00000   0.00000   0.00000   1.91063
    D1       -2.09440   0.00000   0.00000   0.00000   0.00000  -2.09440
    D2        2.09440   0.00000   0.00000   0.00000   0.00000   2.09440
    D3       -2.09440   0.00000   0.00000   0.00000   0.00000  -2.09440
    D4        2.09440   0.00000   0.00000   0.00000   0.00000   2.09440
         Item               Value     Threshold  Converged?
 Maximum Force            0.000002     0.000450     YES
 RMS     Force            0.000001     0.000300     YES
 Maximum Displacement     0.000020     0.001800     YES
 RMS     Displacement     0.000018     0.001200     YES
 Predicted change in Energy=-1.649226D-10
 Optimization completed.
    -- Stationary point found.
                           ----------------------------
                           !   Optimized Parameters   !
                           ! (Angstroms and Degrees)  !
 --------------------------                            --------------------------
 ! Name  Definition              Value          Derivative Info.                !
 --------------------------------------------------------------------------------
 ! R1    R(1,2)                  2.3632         -DE/DX =    0.0                 !
 ! R2    R(1,3)                  2.3632         -DE/DX =    0.0                 !
 ! R3    R(1,4)                  2.3632         -DE/DX =    0.0                 !
 ! R4    R(1,5)                  2.3632         -DE/DX =    0.0                 !
 ! A1    A(2,1,3)              109.4712         -DE/DX =    0.0                 !
 ! A2    A(2,1,4)              109.4712         -DE/DX =    0.0                 !
 ! A3    A(2,1,5)              109.4712         -DE/DX =    0.0                 !
 ! A4    A(3,1,4)              109.4712         -DE/DX =    0.0                 !
 ! A5    A(3,1,5)              109.4712         -DE/DX =    0.0                 !
 ! A6    A(4,1,5)              109.4712         -DE/DX =    0.0                 !
 ! D1    D(2,1,4,3)           -120.0            -DE/DX =    0.0                 !
 ! D2    D(2,1,5,3)            120.0            -DE/DX =    0.0                 !
 ! D3    D(2,1,5,4)           -120.0            -DE/DX =    0.0                 !
 ! D4    D(3,1,5,4)            120.0            -DE/DX =    0.0                 !
 --------------------------------------------------------------------------------
 GradGradGradGradGradGradGradGradGradGradGradGradGradGradGradGradGradGrad

 Dipole is zero, so no output in dipole orientation.

 ----------------------------------------------------------------------

 Electric dipole moment (input orientation):
 (Debye = 10**-18 statcoulomb cm , SI units = C m)
                  (au)            (Debye)         (10**-30 SI)
   Tot        0.000000D+00      0.000000D+00      0.000000D+00
   x          0.000000D+00      0.000000D+00      0.000000D+00
   y          0.000000D+00      0.000000D+00      0.000000D+00
   z          0.000000D+00      0.000000D+00      0.000000D+00

 Dipole polarizability, Alpha (input orientation).
 (esu units = cm**3 , SI units = C**2 m**2 J**-1)
 Alpha(0;0):
               (au)            (10**-24 esu)      (10**-40 SI)
   iso        0.638848D+02      0.946675D+01      0.105332D+02
   aniso      0.000000D+00      0.000000D+00      0.000000D+00
   xx         0.638848D+02      0.946675D+01      0.105332D+02
   yx         0.000000D+00      0.000000D+00      0.000000D+00
   yy         0.638848D+02      0.946675D+01      0.105332D+02
   zx         0.000000D+00      0.000000D+00      0.000000D+00
   zy         0.000000D+00      0.000000D+00      0.000000D+00
   zz         0.638848D+02      0.946675D+01      0.105332D+02

 ----------------------------------------------------------------------
 Unable to Open any file for archive entry.
 1|1|UNPC-SKRS-G36-013|Freq|RB3LYP|6-31G(d,p)|Cl4Zn1(2-)|CSP17|07-Oct-2
 020|0||#N Geom=AllCheck Guess=TCheck SCRF=Check GenChk RB3LYP/6-31G(d,
 p) Freq||ZnCl4_2- optmisation||-2,1|Zn,0.,0.,0.|Cl,-1.3644046436,1.364
 4046436,-1.3644046436|Cl,1.3644046436,-1.3644046436,-1.3644046436|Cl,1
 .3644046436,1.3644046436,1.3644046436|Cl,-1.3644046436,-1.3644046436,1
 .3644046436||Version=EM64W-G16RevC.01|State=1-A1|HF=-3620.1616574|RMSD
 =1.142e-010|RMSF=1.252e-006|ZeroPoint=0.0033395|Thermal=0.0118275|ETot
 =-3620.1498299|HTot=-3620.1488857|GTot=-3620.1923292|Dipole=0.,0.,0.|D
 ipoleDeriv=1.426265,0.,0.,0.,1.426265,0.,0.,0.,1.426265,-0.8565663,0.1
 988476,-0.1988476,0.1988476,-0.8565663,0.1988476,-0.1988476,0.1988476,
 -0.8565663,-0.8565663,0.1988476,0.1988476,0.1988476,-0.8565663,-0.1988
 476,0.1988476,-0.1988476,-0.8565663,-0.8565663,-0.1988476,-0.1988476,-
 0.1988476,-0.8565663,-0.1988476,-0.1988476,-0.1988476,-0.8565663,-0.85
 65663,-0.1988476,0.1988476,-0.1988476,-0.8565663,0.1988476,0.1988476,0
 .1988476,-0.8565663|Polar=63.884794,0.,63.884794,0.,0.,63.884794|Quadr
 upole=0.,0.,0.,0.,0.,0.|PG=TD [O(Zn1),4C3(Cl1)]|NImag=0||0.06946929,0.
 ,0.06946929,0.,0.,0.06946929,-0.01736732,0.00925097,-0.00925097,0.0209
 9038,0.00925097,-0.01736732,0.00925097,-0.01452147,0.02099038,-0.00925
 097,0.00925097,-0.01736732,0.01452147,-0.01452147,0.02099038,-0.017367
 32,0.00925097,0.00925097,-0.00296207,0.00527050,-0.00062972,0.02099038
 ,0.00925097,-0.01736732,-0.00925097,0.00527050,-0.00296207,0.00062972,
 -0.01452147,0.02099038,0.00925097,-0.00925097,-0.01736732,0.00062972,-
 0.00062972,0.00230108,-0.01452147,0.01452147,0.02099038,-0.01736732,-0
 .00925097,-0.00925097,-0.00296207,0.00062972,-0.00527050,0.00230108,-0
 .00062972,-0.00062972,0.02099038,-0.00925097,-0.01736732,-0.00925097,-
 0.00062972,0.00230108,-0.00062972,0.00062972,-0.00296207,-0.00527050,0
 .01452147,0.02099038,-0.00925097,-0.00925097,-0.01736732,-0.00527050,0
 .00062972,-0.00296207,0.00062972,-0.00527050,-0.00296207,0.01452147,0.
 01452147,0.02099038,-0.01736732,-0.00925097,0.00925097,0.00230108,-0.0
 0062972,0.00062972,-0.00296207,0.00062972,0.00527050,-0.00296207,-0.00
 527050,-0.00062972,0.02099038,-0.00925097,-0.01736732,0.00925097,0.000
 62972,-0.00296207,0.00527050,-0.00062972,0.00230108,0.00062972,-0.0052
 7050,-0.00296207,-0.00062972,0.01452147,0.02099038,0.00925097,0.009250
 97,-0.01736732,-0.00062972,0.00527050,-0.00296207,0.00527050,-0.000629
 72,-0.00296207,0.00062972,0.00062972,0.00230108,-0.01452147,-0.0145214
 7,0.02099038||0.,0.,0.,0.00000140,-0.00000140,0.00000140,-0.00000140,0
 .00000140,0.00000140,-0.00000140,-0.00000140,-0.00000140,0.00000140,0.
 00000140,-0.00000140|||@
 The archive entry for this job was punched.


 "MATHEMATICS IS THE ART OF GIVING THE SAME NAME
 TO DIFFERENT THINGS."
                    - H. POINCARE
 Job cpu time:       0 days  0 hours  6 minutes 27.0 seconds.
 Elapsed time:       0 days  0 hours  6 minutes 18.0 seconds.
 File lengths (MBytes):  RWF=     12 Int=      0 D2E=      0 Chk=      8 Scr=      1
 Normal termination of Gaussian 16 at Wed Oct 07 18:33:38 2020.
