 Entering Gaussian System, Link 0=g16
 Input=/rds/general/user/gn116/home/work_n/Isotope/ZnH2O/ZnH2O_A_Freq_66_Th.com
 Output=/rds/general/user/gn116/home/work_n/Isotope/ZnH2O/ZnH2O_A_Freq_66_Th.log
 Initial command:
 /apps/gaussian/g16-a03/l1.exe "/tmp/pbs.2346202.pbs/Gau-983965.inp" -scrdir="/tmp/pbs.2346202.pbs/"
 Entering Link 1 = /apps/gaussian/g16-a03/l1.exe PID=    983968.
  
 Copyright (c) 1988,1990,1992,1993,1995,1998,2003,2009,2016,
            Gaussian, Inc.  All Rights Reserved.
  
 This is part of the Gaussian(R) 16 program.  It is based on
 the Gaussian(R) 09 system (copyright 2009, Gaussian, Inc.),
 the Gaussian(R) 03 system (copyright 2003, Gaussian, Inc.),
 the Gaussian(R) 98 system (copyright 1998, Gaussian, Inc.),
 the Gaussian(R) 94 system (copyright 1995, Gaussian, Inc.),
 the Gaussian 92(TM) system (copyright 1992, Gaussian, Inc.),
 the Gaussian 90(TM) system (copyright 1990, Gaussian, Inc.),
 the Gaussian 88(TM) system (copyright 1988, Gaussian, Inc.),
 the Gaussian 86(TM) system (copyright 1986, Carnegie Mellon
 University), and the Gaussian 82(TM) system (copyright 1983,
 Carnegie Mellon University). Gaussian is a federally registered
 trademark of Gaussian, Inc.
  
 This software contains proprietary and confidential information,
 including trade secrets, belonging to Gaussian, Inc.
  
 This software is provided under written license and may be
 used, copied, transmitted, or stored only in accord with that
 written license.
  
 The following legend is applicable only to US Government
 contracts under FAR:
  
                    RESTRICTED RIGHTS LEGEND
  
 Use, reproduction and disclosure by the US Government is
 subject to restrictions as set forth in subparagraphs (a)
 and (c) of the Commercial Computer Software - Restricted
 Rights clause in FAR 52.227-19.
  
 Gaussian, Inc.
 340 Quinnipiac St., Bldg. 40, Wallingford CT 06492
  
  
 ---------------------------------------------------------------
 Warning -- This program may not be used in any manner that
 competes with the business of Gaussian, Inc. or will provide
 assistance to any competitor of Gaussian, Inc.  The licensee
 of this program is prohibited from giving any competitor of
 Gaussian, Inc. access to this program.  By using this program,
 the user acknowledges that Gaussian, Inc. is engaged in the
 business of creating and licensing software in the field of
 computational chemistry and represents and warrants to the
 licensee that it is not a competitor of Gaussian, Inc. and that
 it will not use this program in any manner prohibited above.
 ---------------------------------------------------------------
  

 Cite this work as:
 Gaussian 16, Revision A.03,
 M. J. Frisch, G. W. Trucks, H. B. Schlegel, G. E. Scuseria, 
 M. A. Robb, J. R. Cheeseman, G. Scalmani, V. Barone, 
 G. A. Petersson, H. Nakatsuji, X. Li, M. Caricato, A. V. Marenich, 
 J. Bloino, B. G. Janesko, R. Gomperts, B. Mennucci, H. P. Hratchian, 
 J. V. Ortiz, A. F. Izmaylov, J. L. Sonnenberg, D. Williams-Young, 
 F. Ding, F. Lipparini, F. Egidi, J. Goings, B. Peng, A. Petrone, 
 T. Henderson, D. Ranasinghe, V. G. Zakrzewski, J. Gao, N. Rega, 
 G. Zheng, W. Liang, M. Hada, M. Ehara, K. Toyota, R. Fukuda, 
 J. Hasegawa, M. Ishida, T. Nakajima, Y. Honda, O. Kitao, H. Nakai, 
 T. Vreven, K. Throssell, J. A. Montgomery, Jr., J. E. Peralta, 
 F. Ogliaro, M. J. Bearpark, J. J. Heyd, E. N. Brothers, K. N. Kudin, 
 V. N. Staroverov, T. A. Keith, R. Kobayashi, J. Normand, 
 K. Raghavachari, A. P. Rendell, J. C. Burant, S. S. Iyengar, 
 J. Tomasi, M. Cossi, J. M. Millam, M. Klene, C. Adamo, R. Cammi, 
 J. W. Ochterski, R. L. Martin, K. Morokuma, O. Farkas, 
 J. B. Foresman, and D. J. Fox, Gaussian, Inc., Wallingford CT, 2016.
 
 ******************************************
 Gaussian 16:  ES64L-G16RevA.03 25-Dec-2016
                 8-Oct-2020 
 ******************************************
 %nprocshared=24
 Will use up to   24 processors via shared memory.
 %mem=88GB
 %chk=ZnH2O_A_Freq_66_Th.chk
 ----------------------------------------------------------------------
 #p freq b3lyp/gen geom=connectivity gfprint integral=grid=ultrafine ps
 eudo=read symmetry=(on,follow) scf=conver=9 scf=Maxcycle=40 EmpiricalD
 ispersion=gd3bj
 ----------------------------------------------------------------------
 1/10=4,30=1,38=1,57=2/1,3;
 2/12=2,15=-1,17=6,18=5,40=1/2;
 3/5=7,11=2,16=1,17=8,24=100,25=1,30=1,71=2,74=-5,75=-5,124=41,140=1/1,2,3;
 4//1;
 5/5=2,6=9,7=40,38=5,98=1/2;
 8/6=4,10=90,11=11/1;
 11/6=1,8=1,9=11,15=111,16=1,31=1/1,2,10;
 10/6=1,31=1/2;
 6/7=2,8=2,9=2,10=2,28=1/1;
 7/8=1,10=1,25=1,30=1/1,2,3,16;
 1/10=4,30=1/3;
 99//99;
 Leave Link    1 at Thu Oct  8 10:35:28 2020, MaxMem= 11811160064 cpu:               1.8 elap:               0.1
 (Enter /apps/gaussian/g16-a03/l101.exe)
 ------------------------------
 Optimisation of ZnH2O6 complex
 ------------------------------
 Symbolic Z-matrix:
 Charge =  2 Multiplicity = 1
 Zn(Iso=66)            0.        0.        0. 
 O                     0.        2.12223   0. 
 O                     0.        0.        2.12223 
 O                    -2.12223   0.        0. 
 O                     0.        0.       -2.12223 
 O                     0.       -2.12223   0. 
 O                     2.12223   0.        0. 
 H                     0.78283  -2.69905   0. 
 H                    -2.69905   0.       -0.78283 
 H                    -2.69905   0.        0.78283 
 H                     0.        0.78283  -2.69905 
 H                     0.       -0.78283  -2.69905 
 H                     2.69905   0.       -0.78283 
 H                     0.       -0.78283   2.69905 
 H                     0.        0.78283   2.69905 
 H                     2.69905   0.        0.78283 
 H                    -0.78283  -2.69905   0. 
 H                     0.78283   2.69905   0. 
 H                    -0.78283   2.69905   0. 
 
 ITRead=  0  0  0  0  0  0  0  0  0  0  0  0  0  0  0  0  0  0  0
 MicOpt= -1 -1 -1 -1 -1 -1 -1 -1 -1 -1 -1 -1 -1 -1 -1 -1 -1 -1 -1
 NAtoms=     19 NQM=       19 NQMF=       0 NMMI=      0 NMMIF=      0
                NMic=       0 NMicF=      0.
                    Isotopes and Nuclear Properties:
 (Nuclear quadrupole moments (NQMom) in fm**2, nuclear magnetic moments (NMagM)
  in nuclear magnetons)

  Atom         1           2           3           4           5           6           7           8           9          10
 IAtWgt=          66          16          16          16          16          16          16           1           1           1
 AtmWgt=  65.9260352  15.9949146  15.9949146  15.9949146  15.9949146  15.9949146  15.9949146   1.0078250   1.0078250   1.0078250
 NucSpn=           0           0           0           0           0           0           0           1           1           1
 AtZEff=  -0.0000000  -0.0000000  -0.0000000  -0.0000000  -0.0000000  -0.0000000  -0.0000000  -0.0000000  -0.0000000  -0.0000000
 NQMom=    0.0000000   0.0000000   0.0000000   0.0000000   0.0000000   0.0000000   0.0000000   0.0000000   0.0000000   0.0000000
 NMagM=    0.0000000   0.0000000   0.0000000   0.0000000   0.0000000   0.0000000   0.0000000   2.7928460   2.7928460   2.7928460
 AtZNuc=  30.0000000   8.0000000   8.0000000   8.0000000   8.0000000   8.0000000   8.0000000   1.0000000   1.0000000   1.0000000

  Atom        11          12          13          14          15          16          17          18          19
 IAtWgt=           1           1           1           1           1           1           1           1           1
 AtmWgt=   1.0078250   1.0078250   1.0078250   1.0078250   1.0078250   1.0078250   1.0078250   1.0078250   1.0078250
 NucSpn=           1           1           1           1           1           1           1           1           1
 AtZEff=  -0.0000000  -0.0000000  -0.0000000  -0.0000000  -0.0000000  -0.0000000  -0.0000000  -0.0000000  -0.0000000
 NQMom=    0.0000000   0.0000000   0.0000000   0.0000000   0.0000000   0.0000000   0.0000000   0.0000000   0.0000000
 NMagM=    2.7928460   2.7928460   2.7928460   2.7928460   2.7928460   2.7928460   2.7928460   2.7928460   2.7928460
 AtZNuc=   1.0000000   1.0000000   1.0000000   1.0000000   1.0000000   1.0000000   1.0000000   1.0000000   1.0000000
 Leave Link  101 at Thu Oct  8 10:35:28 2020, MaxMem= 11811160064 cpu:               2.3 elap:               0.1
 (Enter /apps/gaussian/g16-a03/l103.exe)

 GradGradGradGradGradGradGradGradGradGradGradGradGradGradGradGradGradGrad
 Berny optimization.
 Initialization pass.
 Trust Radius=3.00D-01 FncErr=1.00D-07 GrdErr=1.00D-07 EigMax=2.50D+02 EigMin=1.00D-04
 Number of steps in this run=      2 maximum allowed number of steps=      2.
 GradGradGradGradGradGradGradGradGradGradGradGradGradGradGradGradGradGrad

 Leave Link  103 at Thu Oct  8 10:35:29 2020, MaxMem= 11811160064 cpu:               0.4 elap:               0.0
 (Enter /apps/gaussian/g16-a03/l202.exe)
                          Input orientation:                          
 ---------------------------------------------------------------------
 Center     Atomic      Atomic             Coordinates (Angstroms)
 Number     Number       Type             X           Y           Z
 ---------------------------------------------------------------------
      1         30           0        0.000000    0.000000    0.000000
      2          8           0        0.000000    2.122230    0.000000
      3          8           0        0.000000    0.000000    2.122230
      4          8           0       -2.122230    0.000000    0.000000
      5          8           0        0.000000    0.000000   -2.122230
      6          8           0        0.000000   -2.122230    0.000000
      7          8           0        2.122230    0.000000    0.000000
      8          1           0        0.782830   -2.699054    0.000000
      9          1           0       -2.699054    0.000000   -0.782830
     10          1           0       -2.699054    0.000000    0.782830
     11          1           0        0.000000    0.782830   -2.699054
     12          1           0        0.000000   -0.782830   -2.699054
     13          1           0        2.699054    0.000000   -0.782830
     14          1           0        0.000000   -0.782830    2.699054
     15          1           0        0.000000    0.782830    2.699054
     16          1           0        2.699054    0.000000    0.782830
     17          1           0       -0.782830   -2.699054    0.000000
     18          1           0        0.782830    2.699054    0.000000
     19          1           0       -0.782830    2.699054    0.000000
 ---------------------------------------------------------------------
                    Distance matrix (angstroms):
                    1          2          3          4          5
     1  Zn   0.000000
     2  O    2.122230   0.000000
     3  O    2.122230   3.001286   0.000000
     4  O    2.122230   3.001286   3.001286   0.000000
     5  O    2.122230   3.001286   4.244460   3.001286   0.000000
     6  O    2.122230   4.244460   3.001286   3.001286   3.001286
     7  O    2.122230   3.001286   3.001286   4.244460   3.001286
     8  H    2.810287   4.884424   3.521587   3.965383   3.521587
     9  H    2.810287   3.521587   3.965383   0.972393   3.013119
    10  H    2.810287   3.521587   3.013119   0.972393   3.965383
    11  H    2.810287   3.013119   4.884424   3.521587   0.972393
    12  H    2.810287   3.965383   4.884424   3.521587   0.972393
    13  H    2.810287   3.521587   3.965383   4.884424   3.013119
    14  H    2.810287   3.965383   0.972393   3.521587   4.884424
    15  H    2.810287   3.013119   0.972393   3.521587   4.884424
    16  H    2.810287   3.521587   3.013119   4.884424   3.965383
    17  H    2.810287   4.884424   3.521587   3.013119   3.521587
    18  H    2.810287   0.972393   3.521587   3.965383   3.521587
    19  H    2.810287   0.972393   3.521587   3.013119   3.521587
                    6          7          8          9         10
     6  O    0.000000
     7  O    3.001286   0.000000
     8  H    0.972393   3.013119   0.000000
     9  H    3.521587   4.884424   4.474509   0.000000
    10  H    3.521587   4.884424   4.474509   1.565660   0.000000
    11  H    3.965383   3.521587   4.474509   3.401416   4.474509
    12  H    3.013119   3.521587   3.401416   3.401416   4.474509
    13  H    3.521587   0.972393   3.401416   5.398108   5.620575
    14  H    3.013119   3.521587   3.401416   4.474509   3.401416
    15  H    3.965383   3.521587   4.474509   4.474509   3.401416
    16  H    3.521587   0.972393   3.401416   5.620575   5.398108
    17  H    0.972393   3.965383   1.565660   3.401416   3.401416
    18  H    4.884424   3.013119   5.398108   4.474509   4.474509
    19  H    4.884424   3.965383   5.620575   3.401416   3.401416
                   11         12         13         14         15
    11  H    0.000000
    12  H    1.565660   0.000000
    13  H    3.401416   3.401416   0.000000
    14  H    5.620575   5.398108   4.474509   0.000000
    15  H    5.398108   5.620575   4.474509   1.565660   0.000000
    16  H    4.474509   4.474509   1.565660   3.401416   3.401416
    17  H    4.474509   3.401416   4.474509   3.401416   4.474509
    18  H    3.401416   4.474509   3.401416   4.474509   3.401416
    19  H    3.401416   4.474509   4.474509   4.474509   3.401416
                   16         17         18         19
    16  H    0.000000
    17  H    4.474509   0.000000
    18  H    3.401416   5.620575   0.000000
    19  H    4.474509   5.398108   1.565660   0.000000
 Stoichiometry    H12O6Zn(2+)
 Framework group  TH[O(Zn),3C2(O.O),3SGH(H4)]
 Deg. of freedom     3
 Full point group                 TH      NOp  24
 Largest Abelian subgroup         D2H     NOp   8
 Largest concise Abelian subgroup D2H     NOp   8
                         Standard orientation:                         
 ---------------------------------------------------------------------
 Center     Atomic      Atomic             Coordinates (Angstroms)
 Number     Number       Type             X           Y           Z
 ---------------------------------------------------------------------
      1         30           0        0.000000    0.000000    0.000000
      2          8           0       -0.000000   -0.000000    2.122230
      3          8           0        0.000000    2.122230   -0.000000
      4          8           0        2.122230   -0.000000    0.000000
      5          8           0       -0.000000   -2.122230    0.000000
      6          8           0       -0.000000   -0.000000   -2.122230
      7          8           0       -2.122230    0.000000   -0.000000
      8          1           0       -0.782830    0.000000   -2.699054
      9          1           0        2.699054   -0.782830   -0.000000
     10          1           0        2.699054    0.782830    0.000000
     11          1           0       -0.000000   -2.699054    0.782830
     12          1           0       -0.000000   -2.699054   -0.782830
     13          1           0       -2.699054   -0.782830   -0.000000
     14          1           0       -0.000000    2.699054   -0.782830
     15          1           0        0.000000    2.699054    0.782830
     16          1           0       -2.699054    0.782830    0.000000
     17          1           0        0.782830   -0.000000   -2.699054
     18          1           0       -0.782830    0.000000    2.699054
     19          1           0        0.782830   -0.000000    2.699054
 ---------------------------------------------------------------------
 Rotational constants (GHZ):           1.4364232           1.4364232           1.4364232
 Leave Link  202 at Thu Oct  8 10:35:29 2020, MaxMem= 11811160064 cpu:               0.4 elap:               0.0
 (Enter /apps/gaussian/g16-a03/l301.exe)
 General basis read from cards:  (5D, 7F)
 Centers:       8      9     10     11     12     13     14     15     16     17
 Centers:      18     19      2      3      4      5      6      7
 6-31g(d)
 ****
 Centers:       1
 LanL2DZ
 ****
 ======================================================================================================
                                       Pseudopotential Parameters
 ======================================================================================================
  Center     Atomic      Valence      Angular      Power
  Number     Number     Electrons     Momentum     of R      Exponent        Coefficient   SO-Coeffient
 ======================================================================================================
    1         30           12
                                      F and up 
                                                     1      386.7379660      -18.00000000    0.00000000
                                                     2       72.8587359     -124.35274030    0.00000000
                                                     2       15.9066170      -30.66018220    0.00000000
                                                     2        4.3502340      -10.63589890    0.00000000
                                                     2        1.2842199       -0.76836230    0.00000000
                                      S - F
                                                     0       19.0867858        3.00000000    0.00000000
                                                     1        5.0231080       22.52342250    0.00000000
                                                     2        1.2701744       48.44659420    0.00000000
                                                     2        1.0671287      -44.55601190    0.00000000
                                                     2        0.9264190       12.99839580    0.00000000
                                      P - F
                                                     0       43.4927750        5.00000000    0.00000000
                                                     1       20.8692669       20.74355890    0.00000000
                                                     2       21.7118378       90.30271580    0.00000000
                                                     2        6.3616915       74.66103160    0.00000000
                                                     2        1.2291195        9.88944240    0.00000000
                                      D - F
                                                     2       13.5851800       -4.84903590    0.00000000
                                                     2        9.8373050        3.69133790    0.00000000
                                                     2        0.8373113       -0.50373190    0.00000000
    2          8
                                   No pseudopotential on this center.
    3          8
                                   No pseudopotential on this center.
    4          8
                                   No pseudopotential on this center.
    5          8
                                   No pseudopotential on this center.
    6          8
                                   No pseudopotential on this center.
    7          8
                                   No pseudopotential on this center.
    8          1
                                   No pseudopotential on this center.
    9          1
                                   No pseudopotential on this center.
   10          1
                                   No pseudopotential on this center.
   11          1
                                   No pseudopotential on this center.
   12          1
                                   No pseudopotential on this center.
   13          1
                                   No pseudopotential on this center.
   14          1
                                   No pseudopotential on this center.
   15          1
                                   No pseudopotential on this center.
   16          1
                                   No pseudopotential on this center.
   17          1
                                   No pseudopotential on this center.
   18          1
                                   No pseudopotential on this center.
   19          1
                                   No pseudopotential on this center.
 ======================================================================================================
 Ernie: Thresh=  0.10000D-02 Tol=  0.10000D-05 Strict=F.
 AO basis set (Overlap normalization):
 Atom Zn1      Shell     1 S   2     bf    1 -     1          0.000000000000          0.000000000000          0.000000000000
      0.7997000000D+00 -0.6486111877D+00
      0.1752000000D+00  0.1313829075D+01
 Atom Zn1      Shell     2 S   1     bf    2 -     2          0.000000000000          0.000000000000          0.000000000000
      0.5560000000D-01  0.1000000000D+01
 Atom Zn1      Shell     3 P   1     bf    3 -     5          0.000000000000          0.000000000000          0.000000000000
      0.1202000000D+00  0.1000000000D+01
 Atom Zn1      Shell     4 P   1     bf    6 -     8          0.000000000000          0.000000000000          0.000000000000
      0.3510000000D-01  0.1000000000D+01
 Atom Zn1      Shell     5 D   4     bf    9 -    13          0.000000000000          0.000000000000          0.000000000000
      0.6885000000D+02  0.2585320117D-01
      0.1832000000D+02  0.1651195075D+00
      0.5922000000D+01  0.4468212202D+00
      0.1927000000D+01  0.5831080264D+00
 Atom Zn1      Shell     6 D   1     bf   14 -    18          0.000000000000          0.000000000000          0.000000000000
      0.5528000000D+00  0.1000000000D+01
 Atom O2       Shell     7 S   6     bf   19 -    19         -0.000000000000         -0.000000000000          4.010433473336
      0.5484671660D+04  0.1831074430D-02
      0.8252349460D+03  0.1395017220D-01
      0.1880469580D+03  0.6844507810D-01
      0.5296450000D+02  0.2327143360D+00
      0.1689757040D+02  0.4701928980D+00
      0.5799635340D+01  0.3585208530D+00
 Atom O2       Shell     8 SP   3    bf   20 -    23         -0.000000000000         -0.000000000000          4.010433473336
      0.1553961625D+02 -0.1107775495D+00  0.7087426823D-01
      0.3599933586D+01 -0.1480262627D+00  0.3397528391D+00
      0.1013761750D+01  0.1130767015D+01  0.7271585773D+00
 Atom O2       Shell     9 SP   1    bf   24 -    27         -0.000000000000         -0.000000000000          4.010433473336
      0.2700058226D+00  0.1000000000D+01  0.1000000000D+01
 Atom O2       Shell    10 D   1     bf   28 -    32         -0.000000000000         -0.000000000000          4.010433473336
      0.8000000000D+00  0.1000000000D+01
 Atom O3       Shell    11 S   6     bf   33 -    33          0.000000000000          4.010433473336         -0.000000000000
      0.5484671660D+04  0.1831074430D-02
      0.8252349460D+03  0.1395017220D-01
      0.1880469580D+03  0.6844507810D-01
      0.5296450000D+02  0.2327143360D+00
      0.1689757040D+02  0.4701928980D+00
      0.5799635340D+01  0.3585208530D+00
 Atom O3       Shell    12 SP   3    bf   34 -    37          0.000000000000          4.010433473336         -0.000000000000
      0.1553961625D+02 -0.1107775495D+00  0.7087426823D-01
      0.3599933586D+01 -0.1480262627D+00  0.3397528391D+00
      0.1013761750D+01  0.1130767015D+01  0.7271585773D+00
 Atom O3       Shell    13 SP   1    bf   38 -    41          0.000000000000          4.010433473336         -0.000000000000
      0.2700058226D+00  0.1000000000D+01  0.1000000000D+01
 Atom O3       Shell    14 D   1     bf   42 -    46          0.000000000000          4.010433473336         -0.000000000000
      0.8000000000D+00  0.1000000000D+01
 Atom O4       Shell    15 S   6     bf   47 -    47          4.010433473336         -0.000000000000          0.000000000000
      0.5484671660D+04  0.1831074430D-02
      0.8252349460D+03  0.1395017220D-01
      0.1880469580D+03  0.6844507810D-01
      0.5296450000D+02  0.2327143360D+00
      0.1689757040D+02  0.4701928980D+00
      0.5799635340D+01  0.3585208530D+00
 Atom O4       Shell    16 SP   3    bf   48 -    51          4.010433473336         -0.000000000000          0.000000000000
      0.1553961625D+02 -0.1107775495D+00  0.7087426823D-01
      0.3599933586D+01 -0.1480262627D+00  0.3397528391D+00
      0.1013761750D+01  0.1130767015D+01  0.7271585773D+00
 Atom O4       Shell    17 SP   1    bf   52 -    55          4.010433473336         -0.000000000000          0.000000000000
      0.2700058226D+00  0.1000000000D+01  0.1000000000D+01
 Atom O4       Shell    18 D   1     bf   56 -    60          4.010433473336         -0.000000000000          0.000000000000
      0.8000000000D+00  0.1000000000D+01
 Atom O5       Shell    19 S   6     bf   61 -    61         -0.000000000000         -4.010433473336          0.000000000000
      0.5484671660D+04  0.1831074430D-02
      0.8252349460D+03  0.1395017220D-01
      0.1880469580D+03  0.6844507810D-01
      0.5296450000D+02  0.2327143360D+00
      0.1689757040D+02  0.4701928980D+00
      0.5799635340D+01  0.3585208530D+00
 Atom O5       Shell    20 SP   3    bf   62 -    65         -0.000000000000         -4.010433473336          0.000000000000
      0.1553961625D+02 -0.1107775495D+00  0.7087426823D-01
      0.3599933586D+01 -0.1480262627D+00  0.3397528391D+00
      0.1013761750D+01  0.1130767015D+01  0.7271585773D+00
 Atom O5       Shell    21 SP   1    bf   66 -    69         -0.000000000000         -4.010433473336          0.000000000000
      0.2700058226D+00  0.1000000000D+01  0.1000000000D+01
 Atom O5       Shell    22 D   1     bf   70 -    74         -0.000000000000         -4.010433473336          0.000000000000
      0.8000000000D+00  0.1000000000D+01
 Atom O6       Shell    23 S   6     bf   75 -    75         -0.000000000000         -0.000000000000         -4.010433473336
      0.5484671660D+04  0.1831074430D-02
      0.8252349460D+03  0.1395017220D-01
      0.1880469580D+03  0.6844507810D-01
      0.5296450000D+02  0.2327143360D+00
      0.1689757040D+02  0.4701928980D+00
      0.5799635340D+01  0.3585208530D+00
 Atom O6       Shell    24 SP   3    bf   76 -    79         -0.000000000000         -0.000000000000         -4.010433473336
      0.1553961625D+02 -0.1107775495D+00  0.7087426823D-01
      0.3599933586D+01 -0.1480262627D+00  0.3397528391D+00
      0.1013761750D+01  0.1130767015D+01  0.7271585773D+00
 Atom O6       Shell    25 SP   1    bf   80 -    83         -0.000000000000         -0.000000000000         -4.010433473336
      0.2700058226D+00  0.1000000000D+01  0.1000000000D+01
 Atom O6       Shell    26 D   1     bf   84 -    88         -0.000000000000         -0.000000000000         -4.010433473336
      0.8000000000D+00  0.1000000000D+01
 Atom O7       Shell    27 S   6     bf   89 -    89         -4.010433473336          0.000000000000         -0.000000000000
      0.5484671660D+04  0.1831074430D-02
      0.8252349460D+03  0.1395017220D-01
      0.1880469580D+03  0.6844507810D-01
      0.5296450000D+02  0.2327143360D+00
      0.1689757040D+02  0.4701928980D+00
      0.5799635340D+01  0.3585208530D+00
 Atom O7       Shell    28 SP   3    bf   90 -    93         -4.010433473336          0.000000000000         -0.000000000000
      0.1553961625D+02 -0.1107775495D+00  0.7087426823D-01
      0.3599933586D+01 -0.1480262627D+00  0.3397528391D+00
      0.1013761750D+01  0.1130767015D+01  0.7271585773D+00
 Atom O7       Shell    29 SP   1    bf   94 -    97         -4.010433473336          0.000000000000         -0.000000000000
      0.2700058226D+00  0.1000000000D+01  0.1000000000D+01
 Atom O7       Shell    30 D   1     bf   98 -   102         -4.010433473336          0.000000000000         -0.000000000000
      0.8000000000D+00  0.1000000000D+01
 Atom H8       Shell    31 S   3     bf  103 -   103         -1.479334302093          0.000000000000         -5.100472855412
      0.1873113696D+02  0.3349460434D-01
      0.2825394365D+01  0.2347269535D+00
      0.6401216923D+00  0.8137573261D+00
 Atom H8       Shell    32 S   1     bf  104 -   104         -1.479334302093          0.000000000000         -5.100472855412
      0.1612777588D+00  0.1000000000D+01
 Atom H9       Shell    33 S   3     bf  105 -   105          5.100472855412         -1.479334302093         -0.000000000000
      0.1873113696D+02  0.3349460434D-01
      0.2825394365D+01  0.2347269535D+00
      0.6401216923D+00  0.8137573261D+00
 Atom H9       Shell    34 S   1     bf  106 -   106          5.100472855412         -1.479334302093         -0.000000000000
      0.1612777588D+00  0.1000000000D+01
 Atom H10      Shell    35 S   3     bf  107 -   107          5.100472855412          1.479334302093          0.000000000000
      0.1873113696D+02  0.3349460434D-01
      0.2825394365D+01  0.2347269535D+00
      0.6401216923D+00  0.8137573261D+00
 Atom H10      Shell    36 S   1     bf  108 -   108          5.100472855412          1.479334302093          0.000000000000
      0.1612777588D+00  0.1000000000D+01
 Atom H11      Shell    37 S   3     bf  109 -   109         -0.000000000000         -5.100472855412          1.479334302093
      0.1873113696D+02  0.3349460434D-01
      0.2825394365D+01  0.2347269535D+00
      0.6401216923D+00  0.8137573261D+00
 Atom H11      Shell    38 S   1     bf  110 -   110         -0.000000000000         -5.100472855412          1.479334302093
      0.1612777588D+00  0.1000000000D+01
 Atom H12      Shell    39 S   3     bf  111 -   111         -0.000000000000         -5.100472855412         -1.479334302093
      0.1873113696D+02  0.3349460434D-01
      0.2825394365D+01  0.2347269535D+00
      0.6401216923D+00  0.8137573261D+00
 Atom H12      Shell    40 S   1     bf  112 -   112         -0.000000000000         -5.100472855412         -1.479334302093
      0.1612777588D+00  0.1000000000D+01
 Atom H13      Shell    41 S   3     bf  113 -   113         -5.100472855412         -1.479334302093         -0.000000000000
      0.1873113696D+02  0.3349460434D-01
      0.2825394365D+01  0.2347269535D+00
      0.6401216923D+00  0.8137573261D+00
 Atom H13      Shell    42 S   1     bf  114 -   114         -5.100472855412         -1.479334302093         -0.000000000000
      0.1612777588D+00  0.1000000000D+01
 Atom H14      Shell    43 S   3     bf  115 -   115         -0.000000000000          5.100472855412         -1.479334302093
      0.1873113696D+02  0.3349460434D-01
      0.2825394365D+01  0.2347269535D+00
      0.6401216923D+00  0.8137573261D+00
 Atom H14      Shell    44 S   1     bf  116 -   116         -0.000000000000          5.100472855412         -1.479334302093
      0.1612777588D+00  0.1000000000D+01
 Atom H15      Shell    45 S   3     bf  117 -   117          0.000000000000          5.100472855412          1.479334302093
      0.1873113696D+02  0.3349460434D-01
      0.2825394365D+01  0.2347269535D+00
      0.6401216923D+00  0.8137573261D+00
 Atom H15      Shell    46 S   1     bf  118 -   118          0.000000000000          5.100472855412          1.479334302093
      0.1612777588D+00  0.1000000000D+01
 Atom H16      Shell    47 S   3     bf  119 -   119         -5.100472855412          1.479334302093          0.000000000000
      0.1873113696D+02  0.3349460434D-01
      0.2825394365D+01  0.2347269535D+00
      0.6401216923D+00  0.8137573261D+00
 Atom H16      Shell    48 S   1     bf  120 -   120         -5.100472855412          1.479334302093          0.000000000000
      0.1612777588D+00  0.1000000000D+01
 Atom H17      Shell    49 S   3     bf  121 -   121          1.479334302093         -0.000000000000         -5.100472855412
      0.1873113696D+02  0.3349460434D-01
      0.2825394365D+01  0.2347269535D+00
      0.6401216923D+00  0.8137573261D+00
 Atom H17      Shell    50 S   1     bf  122 -   122          1.479334302093         -0.000000000000         -5.100472855412
      0.1612777588D+00  0.1000000000D+01
 Atom H18      Shell    51 S   3     bf  123 -   123         -1.479334302093          0.000000000000          5.100472855412
      0.1873113696D+02  0.3349460434D-01
      0.2825394365D+01  0.2347269535D+00
      0.6401216923D+00  0.8137573261D+00
 Atom H18      Shell    52 S   1     bf  124 -   124         -1.479334302093          0.000000000000          5.100472855412
      0.1612777588D+00  0.1000000000D+01
 Atom H19      Shell    53 S   3     bf  125 -   125          1.479334302093         -0.000000000000          5.100472855412
      0.1873113696D+02  0.3349460434D-01
      0.2825394365D+01  0.2347269535D+00
      0.6401216923D+00  0.8137573261D+00
 Atom H19      Shell    54 S   1     bf  126 -   126          1.479334302093         -0.000000000000          5.100472855412
      0.1612777588D+00  0.1000000000D+01
 There are    38 symmetry adapted cartesian basis functions of AG  symmetry.
 There are    11 symmetry adapted cartesian basis functions of B1G symmetry.
 There are    11 symmetry adapted cartesian basis functions of B2G symmetry.
 There are    11 symmetry adapted cartesian basis functions of B3G symmetry.
 There are     3 symmetry adapted cartesian basis functions of AU  symmetry.
 There are    20 symmetry adapted cartesian basis functions of B1U symmetry.
 There are    20 symmetry adapted cartesian basis functions of B2U symmetry.
 There are    20 symmetry adapted cartesian basis functions of B3U symmetry.
 There are    33 symmetry adapted basis functions of AG  symmetry.
 There are    11 symmetry adapted basis functions of B1G symmetry.
 There are    11 symmetry adapted basis functions of B2G symmetry.
 There are    11 symmetry adapted basis functions of B3G symmetry.
 There are     3 symmetry adapted basis functions of AU  symmetry.
 There are    19 symmetry adapted basis functions of B1U symmetry.
 There are    19 symmetry adapted basis functions of B2U symmetry.
 There are    19 symmetry adapted basis functions of B3U symmetry.
   126 basis functions,   255 primitive gaussians,   134 cartesian basis functions
    35 alpha electrons       35 beta electrons
       nuclear repulsion energy       461.0087880516 Hartrees.
 IExCor=  402 DFT=T Ex+Corr=B3LYP ExCW=0 ScaHFX=  0.200000
 ScaDFX=  0.800000  0.720000  1.000000  0.810000 ScalE2=  1.000000  1.000000
 IRadAn=      5 IRanWt=     -1 IRanGd=            0 ICorTp=0 IEmpDi=141
 NAtoms=   19 NActive=   19 NUniq=    3 SFac= 4.00D+00 NAtFMM=   60 NAOKFM=F Big=F
 Integral buffers will be    131072 words long.
 Raffenetti 2 integral format.
 Two-electron integral symmetry is turned on.
 R6Disp:  Grimme-D3(BJ) Dispersion energy=       -0.0228767453 Hartrees.
 Nuclear repulsion after empirical dispersion term =      460.9859113063 Hartrees.
 Leave Link  301 at Thu Oct  8 10:35:30 2020, MaxMem= 11811160064 cpu:               2.0 elap:               0.1
 (Enter /apps/gaussian/g16-a03/l302.exe)
 NPDir=0 NMtPBC=     1 NCelOv=     1 NCel=       1 NClECP=     1 NCelD=      1
         NCelK=      1 NCelE2=     1 NClLst=     1 CellRange=     0.0.
 One-electron integrals computed using PRISM.
 One-electron integral symmetry used in STVInt
  24 Symmetry operations used in ECPInt.
 ECPInt:  NShTT=    1485 NPrTT=    7901 LenC2=    1471 LenP2D=    5423.
 LDataN:  DoStor=T MaxTD1= 5 Len=  102
 NBasis=   126 RedAO= T EigKep=  4.07D-02  NBF=    33    11    11    11     3    19    19    19
 NBsUse=   126 1.00D-06 EigRej= -1.00D+00 NBFU=    33    11    11    11     3    19    19    19
 Precomputing XC quadrature grid using
 IXCGrd= 4 IRadAn=           5 IRanWt=          -1 IRanGd=           0 AccXCQ= 0.00D+00.
 Generated NRdTot=       0 NPtTot=           0 NUsed=           0 NTot=          32
 NSgBfM=   134   134   134   134   134 MxSgAt=    19 MxSgA2=    19.
 Leave Link  302 at Thu Oct  8 10:35:30 2020, MaxMem= 11811160064 cpu:               6.8 elap:               0.3
 (Enter /apps/gaussian/g16-a03/l303.exe)
 DipDrv:  MaxL=1.
 Leave Link  303 at Thu Oct  8 10:35:31 2020, MaxMem= 11811160064 cpu:               0.9 elap:               0.1
 (Enter /apps/gaussian/g16-a03/l401.exe)
 ExpMin= 3.51D-02 ExpMax= 5.48D+03 ExpMxC= 8.25D+02 IAcc=3 IRadAn=         5 AccDes= 0.00D+00
 Harris functional with IExCor=  402 and IRadAn=       5 diagonalized for initial guess.
 HarFok:  IExCor=  402 AccDes= 0.00D+00 IRadAn=         5 IDoV= 1 UseB2=F ITyADJ=14
 ICtDFT=  3500011 ScaDFX=  1.000000  1.000000  1.000000  1.000000
 FoFCou: FMM=F IPFlag=           0 FMFlag=      100000 FMFlg1=           0
         NFxFlg=           0 DoJE=T BraDBF=F KetDBF=T FulRan=T
         wScrn=  0.000000 ICntrl=       500 IOpCl=  0 I1Cent=   200000004 NGrid=           0
         NMat0=    1 NMatS0=      1 NMatT0=    0 NMatD0=    1 NMtDS0=    0 NMtDT0=    0
 Petite list used in FoFCou.
 Harris En= -524.366600186766    
 JPrj=0 DoOrth=F DoCkMO=F.
 Initial guess orbital symmetries:
       Occupied  (AG) (TU) (TU) (TU) (EG) (EG) (AG) (TU) (TU) (TU)
                 (EG) (EG) (EG) (EG) (TG) (TG) (TG) (TU) (TU) (TU)
                 (TG) (TG) (TG) (AG) (TU) (TU) (TU) (EG) (EG) (TU)
                 (TU) (TU) (TG) (TG) (TG)
       Virtual   (AG) (TU) (TU) (TU) (EG) (EG) (TU) (TU) (TU) (TG)
                 (TG) (TG) (AG) (TU) (TU) (TU) (TU) (TU) (TU) (TG)
                 (TG) (TG) (AG) (TU) (TU) (TU) (EG) (EG) (TG) (TG)
                 (TG) (TU) (TU) (TU) (TU) (TU) (TU) (EG) (EG) (TG)
                 (TG) (TG) (TU) (TU) (TU) (AG) (TU) (TU) (TU) (EG)
                 (EG) (EG) (EG) (TG) (TG) (TG) (TU) (TU) (TU) (AG)
                 (AU) (TG) (TG) (TG) (EU) (EU) (TU) (TU) (TU) (TG)
                 (TG) (TG) (AG) (TU) (TU) (TU) (AG) (EG) (EG) (TU)
                 (TU) (TU) (EG) (EG) (TG) (TG) (TG) (TU) (TU) (TU)
                 (AG)
 The electronic state of the initial guess is 1-AG.
 Leave Link  401 at Thu Oct  8 10:35:31 2020, MaxMem= 11811160064 cpu:               7.7 elap:               0.4
 (Enter /apps/gaussian/g16-a03/l502.exe)
 Keep R1 ints in memory in symmetry-blocked form, NReq=55048182.
 FoFCou: FMM=F IPFlag=           0 FMFlag=           0 FMFlg1=           0
         NFxFlg=           0 DoJE=F BraDBF=F KetDBF=F FulRan=T
         wScrn=  0.000000 ICntrl=       600 IOpCl=  0 I1Cent=           0 NGrid=           0
         NMat0=    1 NMatS0=   8001 NMatT0=    0 NMatD0=    1 NMtDS0=    0 NMtDT0=    0
 Petite list used in FoFCou.
 Closed shell SCF:
 Using DIIS extrapolation, IDIIS=  1040.
 NGot= 11811160064 LenX= 11806970774 LenY= 11806952377
 Requested convergence on RMS density matrix=1.00D-09 within  40 cycles.
 Requested convergence on MAX density matrix=1.00D-07.
 Requested convergence on             energy=1.00D-07.
 No special actions if energy rises.

 Cycle   1  Pass 1  IDiag  1:
 E= -523.316676234234    
 DIIS: error= 5.90D-02 at cycle   1 NSaved=   1.
 NSaved= 1 IEnMin= 1 EnMin= -523.316676234234     IErMin= 1 ErrMin= 5.90D-02
 ErrMax= 5.90D-02  0.00D+00 EMaxC= 1.00D-01 BMatC= 5.49D-01 BMatP= 5.49D-01
 IDIUse=3 WtCom= 4.10D-01 WtEn= 5.90D-01
 Coeff-Com:  0.100D+01
 Coeff-En:   0.100D+01
 Coeff:      0.100D+01
 Gap=     0.235 Goal=   None    Shift=    0.000
 GapD=    0.235 DampG=1.000 DampE=0.250 DampFc=0.2500 IDamp=-1.
 Damping current iteration by 2.50D-01
 RMSDP=7.76D-03 MaxDP=1.44D-01              OVMax= 1.54D-01

 Cycle   2  Pass 1  IDiag  1:
 E= -523.457310210338     Delta-E=       -0.140633976104 Rises=F Damp=T
 DIIS: error= 2.34D-02 at cycle   2 NSaved=   2.
 NSaved= 2 IEnMin= 2 EnMin= -523.457310210338     IErMin= 2 ErrMin= 2.34D-02
 ErrMax= 2.34D-02  0.00D+00 EMaxC= 1.00D-01 BMatC= 9.44D-02 BMatP= 5.49D-01
 IDIUse=3 WtCom= 7.66D-01 WtEn= 2.34D-01
 Coeff-Com: -0.679D+00 0.168D+01
 Coeff-En:   0.000D+00 0.100D+01
 Coeff:     -0.521D+00 0.152D+01
 Gap=     0.334 Goal=   None    Shift=    0.000
 RMSDP=1.55D-03 MaxDP=3.21D-02 DE=-1.41D-01 OVMax= 9.35D-02

 Cycle   3  Pass 1  IDiag  1:
 E= -523.680758727921     Delta-E=       -0.223448517584 Rises=F Damp=F
 DIIS: error= 1.02D-02 at cycle   3 NSaved=   3.
 NSaved= 3 IEnMin= 3 EnMin= -523.680758727921     IErMin= 3 ErrMin= 1.02D-02
 ErrMax= 1.02D-02  0.00D+00 EMaxC= 1.00D-01 BMatC= 7.70D-03 BMatP= 9.44D-02
 IDIUse=3 WtCom= 8.98D-01 WtEn= 1.02D-01
 Coeff-Com: -0.114D+00 0.451D+00 0.663D+00
 Coeff-En:   0.000D+00 0.000D+00 0.100D+01
 Coeff:     -0.102D+00 0.405D+00 0.697D+00
 Gap=     0.340 Goal=   None    Shift=    0.000
 RMSDP=3.87D-04 MaxDP=1.11D-02 DE=-2.23D-01 OVMax= 9.27D-03

 Cycle   4  Pass 1  IDiag  1:
 E= -523.684815358304     Delta-E=       -0.004056630383 Rises=F Damp=F
 DIIS: error= 3.35D-03 at cycle   4 NSaved=   4.
 NSaved= 4 IEnMin= 4 EnMin= -523.684815358304     IErMin= 4 ErrMin= 3.35D-03
 ErrMax= 3.35D-03  0.00D+00 EMaxC= 1.00D-01 BMatC= 4.75D-04 BMatP= 7.70D-03
 IDIUse=3 WtCom= 9.66D-01 WtEn= 3.35D-02
 Coeff-Com:  0.389D-01-0.489D-01 0.293D+00 0.717D+00
 Coeff-En:   0.000D+00 0.000D+00 0.000D+00 0.100D+01
 Coeff:      0.376D-01-0.472D-01 0.283D+00 0.726D+00
 Gap=     0.340 Goal=   None    Shift=    0.000
 RMSDP=8.66D-05 MaxDP=2.84D-03 DE=-4.06D-03 OVMax= 2.33D-03

 Cycle   5  Pass 1  IDiag  1:
 E= -523.685049006318     Delta-E=       -0.000233648013 Rises=F Damp=F
 DIIS: error= 2.79D-04 at cycle   5 NSaved=   5.
 NSaved= 5 IEnMin= 5 EnMin= -523.685049006318     IErMin= 5 ErrMin= 2.79D-04
 ErrMax= 2.79D-04  0.00D+00 EMaxC= 1.00D-01 BMatC= 5.23D-06 BMatP= 4.75D-04
 IDIUse=3 WtCom= 9.97D-01 WtEn= 2.79D-03
 Coeff-Com:  0.108D-01-0.155D-01 0.626D-01 0.213D+00 0.730D+00
 Coeff-En:   0.000D+00 0.000D+00 0.000D+00 0.000D+00 0.100D+01
 Coeff:      0.107D-01-0.155D-01 0.624D-01 0.212D+00 0.730D+00
 Gap=     0.340 Goal=   None    Shift=    0.000
 RMSDP=1.37D-05 MaxDP=2.00D-04 DE=-2.34D-04 OVMax= 4.04D-04

 Cycle   6  Pass 1  IDiag  1:
 E= -523.685052650883     Delta-E=       -0.000003644566 Rises=F Damp=F
 DIIS: error= 1.80D-05 at cycle   6 NSaved=   6.
 NSaved= 6 IEnMin= 6 EnMin= -523.685052650883     IErMin= 6 ErrMin= 1.80D-05
 ErrMax= 1.80D-05  0.00D+00 EMaxC= 1.00D-01 BMatC= 7.06D-08 BMatP= 5.23D-06
 IDIUse=1 WtCom= 1.00D+00 WtEn= 0.00D+00
 Coeff-Com:  0.221D-02-0.347D-02 0.861D-02 0.372D-01 0.168D+00 0.788D+00
 Coeff:      0.221D-02-0.347D-02 0.861D-02 0.372D-01 0.168D+00 0.788D+00
 Gap=     0.340 Goal=   None    Shift=    0.000
 RMSDP=1.05D-06 MaxDP=2.08D-05 DE=-3.64D-06 OVMax= 2.72D-05

 Cycle   7  Pass 1  IDiag  1:
 E= -523.685052699063     Delta-E=       -0.000000048180 Rises=F Damp=F
 DIIS: error= 2.78D-06 at cycle   7 NSaved=   7.
 NSaved= 7 IEnMin= 7 EnMin= -523.685052699063     IErMin= 7 ErrMin= 2.78D-06
 ErrMax= 2.78D-06  0.00D+00 EMaxC= 1.00D-01 BMatC= 1.13D-09 BMatP= 7.06D-08
 IDIUse=1 WtCom= 1.00D+00 WtEn= 0.00D+00
 Coeff-Com: -0.645D-04 0.124D-03-0.583D-03-0.190D-02-0.121D-01-0.187D-01
 Coeff-Com:  0.103D+01
 Coeff:     -0.645D-04 0.124D-03-0.583D-03-0.190D-02-0.121D-01-0.187D-01
 Coeff:      0.103D+01
 Gap=     0.340 Goal=   None    Shift=    0.000
 RMSDP=1.75D-07 MaxDP=3.78D-06 DE=-4.82D-08 OVMax= 4.60D-06

 Cycle   8  Pass 1  IDiag  1:
 E= -523.685052699799     Delta-E=       -0.000000000736 Rises=F Damp=F
 DIIS: error= 1.44D-07 at cycle   8 NSaved=   8.
 NSaved= 8 IEnMin= 8 EnMin= -523.685052699799     IErMin= 8 ErrMin= 1.44D-07
 ErrMax= 1.44D-07  0.00D+00 EMaxC= 1.00D-01 BMatC= 2.29D-12 BMatP= 1.13D-09
 IDIUse=1 WtCom= 1.00D+00 WtEn= 0.00D+00
 Coeff-Com: -0.126D-04 0.174D-04-0.430D-04-0.163D-03-0.505D-03-0.104D-02
 Coeff-Com: -0.126D-01 0.101D+01
 Coeff:     -0.126D-04 0.174D-04-0.430D-04-0.163D-03-0.505D-03-0.104D-02
 Coeff:     -0.126D-01 0.101D+01
 Gap=     0.340 Goal=   None    Shift=    0.000
 RMSDP=7.56D-09 MaxDP=1.49D-07 DE=-7.36D-10 OVMax= 1.83D-07

 Cycle   9  Pass 1  IDiag  1:
 E= -523.685052699806     Delta-E=       -0.000000000007 Rises=F Damp=F
 DIIS: error= 1.67D-08 at cycle   9 NSaved=   9.
 NSaved= 9 IEnMin= 9 EnMin= -523.685052699806     IErMin= 9 ErrMin= 1.67D-08
 ErrMax= 1.67D-08  0.00D+00 EMaxC= 1.00D-01 BMatC= 2.41D-14 BMatP= 2.29D-12
 IDIUse=1 WtCom= 1.00D+00 WtEn= 0.00D+00
 Coeff-Com:  0.795D-07-0.174D-06 0.397D-06 0.872D-06 0.251D-04 0.637D-04
 Coeff-Com:  0.104D-03-0.638D-01 0.106D+01
 Coeff:      0.795D-07-0.174D-06 0.397D-06 0.872D-06 0.251D-04 0.637D-04
 Coeff:      0.104D-03-0.638D-01 0.106D+01
 Gap=     0.340 Goal=   None    Shift=    0.000
 RMSDP=7.45D-10 MaxDP=1.56D-08 DE=-6.71D-12 OVMax= 1.50D-08

 SCF Done:  E(RB3LYP) =  -523.685052700     A.U. after    9 cycles
            NFock=  9  Conv=0.74D-09     -V/T= 1.9175
 KE= 5.707477690157D+02 PE=-2.216432053821D+03 EE= 6.610133207988D+02
 Leave Link  502 at Thu Oct  8 10:35:33 2020, MaxMem= 11811160064 cpu:              32.3 elap:               1.4
 (Enter /apps/gaussian/g16-a03/l801.exe)
 DoSCS=F DFT=T ScalE2(SS,OS)=  1.000000  1.000000
 Range of M.O.s used for correlation:     1   126
 NBasis=   126 NAE=    35 NBE=    35 NFC=     0 NFV=     0
 NROrb=    126 NOA=    35 NOB=    35 NVA=    91 NVB=    91
 Leave Link  801 at Thu Oct  8 10:35:34 2020, MaxMem= 11811160064 cpu:               0.7 elap:               0.1
 (Enter /apps/gaussian/g16-a03/l1101.exe)
 Using compressed storage, NAtomX=    19.
 Will process     20 centers per pass.
   1 Symmetry operations used in ECPInt.
 ECPInt:  NShTT=    1485 NPrTT=    7901 LenC2=    1471 LenP2D=    5423.
 LDataN:  DoStor=T MaxTD1= 6 Len=  172
 R6Disp: Adding Grimme-D3(BJ) dispersion energy 1st derivatives to the gradient.
 Leave Link 1101 at Thu Oct  8 10:35:34 2020, MaxMem= 11811160064 cpu:               8.7 elap:               0.4
 (Enter /apps/gaussian/g16-a03/l1102.exe)
 Symmetrizing basis deriv contribution to polar:
 IMax=3 JMax=2 DiffMx= 0.00D+00
 Leave Link 1102 at Thu Oct  8 10:35:35 2020, MaxMem= 11811160064 cpu:               0.8 elap:               0.1
 (Enter /apps/gaussian/g16-a03/l1110.exe)
 Forming Gx(P) for the SCF density, NAtomX=    19.
 Integral derivatives from FoFJK, PRISM(SPDF).
 Do as many integral derivatives as possible in FoFJK.
 G2DrvN: MDV=   11811158636.
 G2DrvN: will do    20 centers at a time, making    1 passes.
 Calling FoFCou, ICntrl=  3107 FMM=F I1Cent=   0 AccDes= 0.00D+00.
 FoFJK:  IHMeth= 1 ICntrl=    3107 DoSepK=F KAlg= 0 I1Cent=           0 FoldK=F
 IRaf=         0 NMat=       1 IRICut=       1 DoRegI=T DoRafI=F ISym2E= 0 IDoP0=0 IntGTp=1.
 FoFCou: FMM=F IPFlag=           0 FMFlag=      100000 FMFlg1=           0
         NFxFlg=           0 DoJE=F BraDBF=F KetDBF=F FulRan=T
         wScrn=  0.000000 ICntrl=      3107 IOpCl=  0 I1Cent=           0 NGrid=           0
         NMat0=    1 NMatS0=      1 NMatT0=    0 NMatD0=    1 NMtDS0=    0 NMtDT0=    0
 Symmetry not used in FoFCou.
 End of G2Drv F.D. properties file   721 does not exist.
 End of G2Drv F.D. properties file   722 does not exist.
 End of G2Drv F.D. properties file   788 does not exist.
 Leave Link 1110 at Thu Oct  8 10:35:48 2020, MaxMem= 11811160064 cpu:             299.1 elap:              12.5
 (Enter /apps/gaussian/g16-a03/l1002.exe)
 Minotr:  Closed shell wavefunction.
          IDoAtm=1111111111111111111
          Direct CPHF calculation.
          Differentiating once with respect to electric field.
                with respect to dipole field.
          Differentiating once with respect to nuclear coordinates.
          Requested convergence is 1.0D-08 RMS, and 1.0D-07 maximum.
          Secondary convergence is 1.0D-12 RMS, and 1.0D-12 maximum.
          NewPWx=T KeepS1=F KeepF1=F KeepIn=T MapXYZ=F SortEE=F KeepMc=T.
         5810 words used for storage of precomputed grid.
 Keep R1 ints in memory in symmetry-blocked form, NReq=54985367.
 FoFCou: FMM=F IPFlag=           0 FMFlag=           0 FMFlg1=           0
         NFxFlg=           0 DoJE=F BraDBF=F KetDBF=F FulRan=T
         wScrn=  0.000000 ICntrl=       600 IOpCl=  0 I1Cent=           0 NGrid=           0
         NMat0=    1 NMatS0=   8001 NMatT0=    0 NMatD0=    1 NMtDS0=    0 NMtDT0=    0
 Petite list used in FoFCou.
          MDV=   11811160064 using IRadAn=       1.
          Solving linear equations simultaneously, MaxMat=       0.
          There are    60 degrees of freedom in the 1st order CPHF.  IDoFFX=6 NUNeed=     3.
     57 vectors produced by pass  0 Test12= 5.31D-15 1.67D-09 XBig12= 1.66D+01 1.39D+00.
 AX will form    57 AO Fock derivatives at one time.
     57 vectors produced by pass  1 Test12= 5.31D-15 1.67D-09 XBig12= 3.37D-01 1.69D-01.
     57 vectors produced by pass  2 Test12= 5.31D-15 1.67D-09 XBig12= 1.92D-03 1.17D-02.
     57 vectors produced by pass  3 Test12= 5.31D-15 1.67D-09 XBig12= 1.93D-06 4.11D-04.
     57 vectors produced by pass  4 Test12= 5.31D-15 1.67D-09 XBig12= 6.08D-10 5.86D-06.
     27 vectors produced by pass  5 Test12= 5.31D-15 1.67D-09 XBig12= 3.45D-13 2.12D-07.
      3 vectors produced by pass  6 Test12= 5.31D-15 1.67D-09 XBig12= 1.23D-16 2.41D-09.
 InvSVY:  IOpt=1 It=  1 EMax= 4.44D-15
 Solved reduced A of dimension   315 with    60 vectors.
 FullF1:  Do perturbations      1 to       3.
 Isotropic polarizability for W=    0.000000       39.65 Bohr**3.
 End of Minotr F.D. properties file   721 does not exist.
 End of Minotr F.D. properties file   722 does not exist.
 End of Minotr F.D. properties file   788 does not exist.
 Leave Link 1002 at Thu Oct  8 10:35:58 2020, MaxMem= 11811160064 cpu:             222.8 elap:               9.4
 (Enter /apps/gaussian/g16-a03/l601.exe)
 Copying SCF densities to generalized density rwf, IOpCl= 0 IROHF=0.

 **********************************************************************

            Population analysis using the SCF density.

 **********************************************************************

 Orbital symmetries:
       Occupied  (TU) (TU) (TU) (AG) (EG) (EG) (AG) (TU) (TU) (TU)
                 (EG) (EG) (EG) (EG) (TG) (TG) (TG) (TU) (TU) (TU)
                 (TG) (TG) (TG) (AG) (TU) (TU) (TU) (EG) (EG) (TU)
                 (TU) (TU) (TG) (TG) (TG)
       Virtual   (AG) (TU) (TU) (TU) (EG) (EG) (TU) (TU) (TU) (TG)
                 (TG) (TG) (AG) (TU) (TU) (TU) (TU) (TU) (TU) (TG)
                 (TG) (TG) (AG) (TU) (TU) (TU) (EG) (EG) (TU) (TU)
                 (TU) (TG) (TG) (TG) (TU) (TU) (TU) (EG) (EG) (TG)
                 (TG) (TG) (TU) (TU) (TU) (AG) (TU) (TU) (TU) (EG)
                 (EG) (EG) (EG) (TG) (TG) (TG) (TU) (TU) (TU) (AG)
                 (AU) (TG) (TG) (TG) (EU) (EU) (TU) (TU) (TU) (TG)
                 (TG) (TG) (AG) (TU) (TU) (TU) (AG) (EG) (EG) (TU)
                 (TU) (TU) (EG) (EG) (TG) (TG) (TG) (TU) (TU) (TU)
                 (AG)
 The electronic state is 1-AG.
 Alpha  occ. eigenvalues --  -19.47900 -19.47900 -19.47900 -19.47900 -19.47896
 Alpha  occ. eigenvalues --  -19.47896  -1.34579  -1.33896  -1.33896  -1.33896
 Alpha  occ. eigenvalues --   -1.33700  -1.33700  -0.92073  -0.92073  -0.90786
 Alpha  occ. eigenvalues --   -0.90786  -0.90786  -0.86078  -0.86078  -0.86078
 Alpha  occ. eigenvalues --   -0.85653  -0.85653  -0.85653  -0.80863  -0.75144
 Alpha  occ. eigenvalues --   -0.75144  -0.75144  -0.70684  -0.70684  -0.64276
 Alpha  occ. eigenvalues --   -0.64276  -0.64276  -0.64088  -0.64088  -0.64088
 Alpha virt. eigenvalues --   -0.30047  -0.25996  -0.25996  -0.25996  -0.19808
 Alpha virt. eigenvalues --   -0.19808  -0.15424  -0.15424  -0.15424  -0.14229
 Alpha virt. eigenvalues --   -0.14229  -0.14229  -0.12542  -0.04815  -0.04815
 Alpha virt. eigenvalues --   -0.04815  -0.01035  -0.01035  -0.01035   0.35205
 Alpha virt. eigenvalues --    0.35205   0.35205   0.49945   0.52362   0.52362
 Alpha virt. eigenvalues --    0.52362   0.56203   0.56203   0.61029   0.61029
 Alpha virt. eigenvalues --    0.61029   0.61499   0.61499   0.61499   0.69790
 Alpha virt. eigenvalues --    0.69790   0.69790   0.70983   0.70983   0.75280
 Alpha virt. eigenvalues --    0.75280   0.75280   0.81543   0.81543   0.81543
 Alpha virt. eigenvalues --    0.88999   0.92186   0.92186   0.92186   0.94542
 Alpha virt. eigenvalues --    0.94542   1.14223   1.14223   1.17360   1.17360
 Alpha virt. eigenvalues --    1.17360   1.20761   1.20761   1.20761   1.21194
 Alpha virt. eigenvalues --    1.39060   1.39238   1.39238   1.39238   1.39244
 Alpha virt. eigenvalues --    1.39244   1.39398   1.39398   1.39398   1.51127
 Alpha virt. eigenvalues --    1.51127   1.51127   1.68217   1.78406   1.78406
 Alpha virt. eigenvalues --    1.78406   1.93235   1.94380   1.94380   1.94794
 Alpha virt. eigenvalues --    1.94794   1.94794   2.10379   2.10379   2.24246
 Alpha virt. eigenvalues --    2.24246   2.24246   2.25720   2.25720   2.25720
 Alpha virt. eigenvalues --    5.92786
          Condensed to atoms (all electrons):
               1          2          3          4          5          6
     1  Zn  10.282025   0.112740   0.112740   0.112740   0.112740   0.112740
     2  O    0.112740   8.230041  -0.004256  -0.004256  -0.004256   0.000002
     3  O    0.112740  -0.004256   8.230041  -0.004256   0.000002  -0.004256
     4  O    0.112740  -0.004256  -0.004256   8.230041  -0.004256  -0.004256
     5  O    0.112740  -0.004256   0.000002  -0.004256   8.230041  -0.004256
     6  O    0.112740   0.000002  -0.004256  -0.004256  -0.004256   8.230041
     7  O    0.112740  -0.004256  -0.004256   0.000002  -0.004256  -0.004256
     8  H   -0.006977  -0.000002  -0.000015   0.000018  -0.000015   0.252711
     9  H   -0.006977  -0.000015   0.000018   0.252711   0.000950  -0.000015
    10  H   -0.006977  -0.000015   0.000950   0.252711   0.000018  -0.000015
    11  H   -0.006977   0.000950  -0.000002  -0.000015   0.252711   0.000018
    12  H   -0.006977   0.000018  -0.000002  -0.000015   0.252711   0.000950
    13  H   -0.006977  -0.000015   0.000018  -0.000002   0.000950  -0.000015
    14  H   -0.006977   0.000018   0.252711  -0.000015  -0.000002   0.000950
    15  H   -0.006977   0.000950   0.252711  -0.000015  -0.000002   0.000018
    16  H   -0.006977  -0.000015   0.000950  -0.000002   0.000018  -0.000015
    17  H   -0.006977  -0.000002  -0.000015   0.000950  -0.000015   0.252711
    18  H   -0.006977   0.252711  -0.000015   0.000018  -0.000015  -0.000002
    19  H   -0.006977   0.252711  -0.000015   0.000950  -0.000015  -0.000002
               7          8          9         10         11         12
     1  Zn   0.112740  -0.006977  -0.006977  -0.006977  -0.006977  -0.006977
     2  O   -0.004256  -0.000002  -0.000015  -0.000015   0.000950   0.000018
     3  O   -0.004256  -0.000015   0.000018   0.000950  -0.000002  -0.000002
     4  O    0.000002   0.000018   0.252711   0.252711  -0.000015  -0.000015
     5  O   -0.004256  -0.000015   0.000950   0.000018   0.252711   0.252711
     6  O   -0.004256   0.252711  -0.000015  -0.000015   0.000018   0.000950
     7  O    8.230041   0.000950  -0.000002  -0.000002  -0.000015  -0.000015
     8  H    0.000950   0.279251  -0.000001  -0.000001  -0.000001  -0.000030
     9  H   -0.000002  -0.000001   0.279251  -0.015218  -0.000030  -0.000030
    10  H   -0.000002  -0.000001  -0.015218   0.279251  -0.000001  -0.000001
    11  H   -0.000015  -0.000001  -0.000030  -0.000001   0.279251  -0.015218
    12  H   -0.000015  -0.000030  -0.000030  -0.000001  -0.015218   0.279251
    13  H    0.252711  -0.000030   0.000000   0.000000  -0.000030  -0.000030
    14  H   -0.000015  -0.000030  -0.000001  -0.000030   0.000000   0.000000
    15  H   -0.000015  -0.000001  -0.000001  -0.000030   0.000000   0.000000
    16  H    0.252711  -0.000030   0.000000   0.000000  -0.000001  -0.000001
    17  H    0.000018  -0.015218  -0.000030  -0.000030  -0.000001  -0.000030
    18  H    0.000950   0.000000  -0.000001  -0.000001  -0.000030  -0.000001
    19  H    0.000018   0.000000  -0.000030  -0.000030  -0.000030  -0.000001
              13         14         15         16         17         18
     1  Zn  -0.006977  -0.006977  -0.006977  -0.006977  -0.006977  -0.006977
     2  O   -0.000015   0.000018   0.000950  -0.000015  -0.000002   0.252711
     3  O    0.000018   0.252711   0.252711   0.000950  -0.000015  -0.000015
     4  O   -0.000002  -0.000015  -0.000015  -0.000002   0.000950   0.000018
     5  O    0.000950  -0.000002  -0.000002   0.000018  -0.000015  -0.000015
     6  O   -0.000015   0.000950   0.000018  -0.000015   0.252711  -0.000002
     7  O    0.252711  -0.000015  -0.000015   0.252711   0.000018   0.000950
     8  H   -0.000030  -0.000030  -0.000001  -0.000030  -0.015218   0.000000
     9  H    0.000000  -0.000001  -0.000001   0.000000  -0.000030  -0.000001
    10  H    0.000000  -0.000030  -0.000030   0.000000  -0.000030  -0.000001
    11  H   -0.000030   0.000000   0.000000  -0.000001  -0.000001  -0.000030
    12  H   -0.000030   0.000000   0.000000  -0.000001  -0.000030  -0.000001
    13  H    0.279251  -0.000001  -0.000001  -0.015218  -0.000001  -0.000030
    14  H   -0.000001   0.279251  -0.015218  -0.000030  -0.000030  -0.000001
    15  H   -0.000001  -0.015218   0.279251  -0.000030  -0.000001  -0.000030
    16  H   -0.015218  -0.000030  -0.000030   0.279251  -0.000001  -0.000030
    17  H   -0.000001  -0.000030  -0.000001  -0.000001   0.279251   0.000000
    18  H   -0.000030  -0.000001  -0.000030  -0.000030   0.000000   0.279251
    19  H   -0.000001  -0.000001  -0.000030  -0.000001   0.000000  -0.015218
              19
     1  Zn  -0.006977
     2  O    0.252711
     3  O   -0.000015
     4  O    0.000950
     5  O   -0.000015
     6  O   -0.000002
     7  O    0.000018
     8  H    0.000000
     9  H   -0.000030
    10  H   -0.000030
    11  H   -0.000030
    12  H   -0.000001
    13  H   -0.000001
    14  H   -0.000001
    15  H   -0.000030
    16  H   -0.000001
    17  H    0.000000
    18  H   -0.015218
    19  H    0.279251
 Mulliken charges:
               1
     1  Zn   1.125257
     2  O   -0.833054
     3  O   -0.833054
     4  O   -0.833054
     5  O   -0.833054
     6  O   -0.833054
     7  O   -0.833054
     8  H    0.489422
     9  H    0.489422
    10  H    0.489422
    11  H    0.489422
    12  H    0.489422
    13  H    0.489422
    14  H    0.489422
    15  H    0.489422
    16  H    0.489422
    17  H    0.489422
    18  H    0.489422
    19  H    0.489422
 Sum of Mulliken charges =   2.00000
 Mulliken charges with hydrogens summed into heavy atoms:
               1
     1  Zn   1.125257
     2  O    0.145791
     3  O    0.145791
     4  O    0.145791
     5  O    0.145791
     6  O    0.145791
     7  O    0.145791
 APT charges:
               1
     1  Zn   1.743648
     2  O   -0.674026
     3  O   -0.674026
     4  O   -0.674026
     5  O   -0.674026
     6  O   -0.674026
     7  O   -0.674026
     8  H    0.358376
     9  H    0.358376
    10  H    0.358376
    11  H    0.358376
    12  H    0.358376
    13  H    0.358376
    14  H    0.358376
    15  H    0.358376
    16  H    0.358376
    17  H    0.358376
    18  H    0.358376
    19  H    0.358376
 Sum of APT charges =   2.00000
 APT charges with hydrogens summed into heavy atoms:
               1
     1  Zn   1.743648
     2  O    0.042725
     3  O    0.042725
     4  O    0.042725
     5  O    0.042725
     6  O    0.042725
     7  O    0.042725
 Electronic spatial extent (au):  <R**2>=           1134.9254
 Charge=              2.0000 electrons
 Dipole moment (field-independent basis, Debye):
    X=             -0.0000    Y=              0.0000    Z=              0.0000  Tot=              0.0000
 Quadrupole moment (field-independent basis, Debye-Ang):
   XX=            -10.9731   YY=            -10.9731   ZZ=            -10.9731
   XY=             -0.0000   XZ=             -0.0000   YZ=              0.0000
 Traceless Quadrupole moment (field-independent basis, Debye-Ang):
   XX=             -0.0000   YY=              0.0000   ZZ=             -0.0000
   XY=             -0.0000   XZ=             -0.0000   YZ=              0.0000
 Octapole moment (field-independent basis, Debye-Ang**2):
  XXX=             -0.0000  YYY=              0.0000  ZZZ=             -0.0000  XYY=             -0.0000
  XXY=             -0.0000  XXZ=              0.0000  XZZ=             -0.0000  YZZ=              0.0000
  YYZ=              0.0000  XYZ=              0.0000
 Hexadecapole moment (field-independent basis, Debye-Ang**3):
 XXXX=            -94.7349 YYYY=            -94.7349 ZZZZ=            -94.7349 XXXY=             -0.0000
 XXXZ=             -0.0000 YYYX=              0.0000 YYYZ=              0.0000 ZZZX=             -0.0000
 ZZZY=              0.0000 XXYY=           -100.7222 XXZZ=           -100.7222 YYZZ=           -100.7222
 XXYZ=              0.0000 YYXZ=              0.0000 ZZXY=              0.0000
 N-N= 4.609859113063D+02 E-N=-2.216432051133D+03  KE= 5.707477690157D+02
 Symmetry AG   KE= 2.494989344144D+02
 Symmetry B1G  KE= 3.114042818268D+01
 Symmetry B2G  KE= 3.114042818268D+01
 Symmetry B3G  KE= 3.114042818268D+01
 Symmetry AU   KE= 4.935936442705D-32
 Symmetry B1U  KE= 7.594251668441D+01
 Symmetry B2U  KE= 7.594251668441D+01
 Symmetry B3U  KE= 7.594251668441D+01
  Exact polarizability:  39.653  -0.000  39.653   0.000  -0.000  39.653
 Approx polarizability:  45.775  -0.000  45.775   0.000   0.000  45.775
 No NMR shielding tensors so no spin-rotation constants.
 Leave Link  601 at Thu Oct  8 10:35:59 2020, MaxMem= 11811160064 cpu:               3.5 elap:               0.2
 (Enter /apps/gaussian/g16-a03/l701.exe)
 ... and contract with generalized density number  0.
 Compute integral second derivatives.
 R6Disp: Adding Grimme-D3(BJ) dispersion energy 2nd derivatives to the Hessian.
   1 Symmetry operations used in ECPInt.
 ECPInt:  NShTT=    1485 NPrTT=    7901 LenC2=    1471 LenP2D=    5423.
 LDataN:  DoStor=T MaxTD1= 7 Len=  274
 Leave Link  701 at Thu Oct  8 10:36:00 2020, MaxMem= 11811160064 cpu:              19.8 elap:               0.9
 (Enter /apps/gaussian/g16-a03/l702.exe)
 L702 exits ... SP integral derivatives will be done elsewhere.
 Leave Link  702 at Thu Oct  8 10:36:01 2020, MaxMem= 11811160064 cpu:               0.6 elap:               0.0
 (Enter /apps/gaussian/g16-a03/l703.exe)
 Integral derivatives from FoFJK, PRISM(SPDF).
 Compute integral second derivatives, UseDBF=F ICtDFT=           0.
 Calling FoFJK, ICntrl=    100127 FMM=F ISym2X=0 I1Cent= 0 IOpClX= 0 NMat=1 NMatS=1 NMatT=0.
 FoFJK:  IHMeth= 1 ICntrl=  100127 DoSepK=F KAlg= 0 I1Cent=           0 FoldK=F
 IRaf=         0 NMat=       1 IRICut=       1 DoRegI=T DoRafI=F ISym2E= 0 IDoP0=0 IntGTp=1.
 FoFCou: FMM=F IPFlag=           0 FMFlag=      100000 FMFlg1=         800
         NFxFlg=           0 DoJE=F BraDBF=F KetDBF=F FulRan=T
         wScrn=  0.000000 ICntrl=    100127 IOpCl=  0 I1Cent=           0 NGrid=           0
         NMat0=    1 NMatS0=      1 NMatT0=    0 NMatD0=    1 NMtDS0=    0 NMtDT0=    0
 Symmetry not used in FoFCou.
 Leave Link  703 at Thu Oct  8 10:36:11 2020, MaxMem= 11811160064 cpu:             238.9 elap:              10.0
 (Enter /apps/gaussian/g16-a03/l716.exe)
 Dipole        =-1.77635684D-15 2.01624189D-15 4.09310415D-15
 Polarizability= 3.96534662D+01-3.68071141D-12 3.96534662D+01
                 5.36174735D-11-1.38131036D-11 3.96534662D+01
 Full mass-weighted force constant matrix:
 Low frequencies ---   -0.0012   -0.0010   -0.0009    8.2085    8.2085    8.2085
 Low frequencies ---   63.8850   63.8850   63.8850
 Diagonal vibrational polarizability:
      220.5043926     220.5043929     220.5043926
 Harmonic frequencies (cm**-1), IR intensities (KM/Mole), Raman scattering
 activities (A**4/AMU), depolarization ratios for plane and unpolarized
 incident light, reduced masses (AMU), force constants (mDyne/A),
 and normal coordinates:
                      1                      2                      3
                     TG                     TG                     TG
 Frequencies --     63.8848                63.8848                63.8848
 Red. masses --      4.3913                 4.3913                 4.3913
 Frc consts  --      0.0106                 0.0106                 0.0106
 IR Inten    --      0.0000                 0.0000                 0.0000
  Atom  AN      X      Y      Z        X      Y      Z        X      Y      Z
     1  30    -0.00  -0.00  -0.00     0.00  -0.00   0.00    -0.00  -0.00  -0.00
     2   8     0.00   0.27   0.00     0.17  -0.02   0.00     0.09   0.02   0.00
     3   8    -0.02  -0.00   0.19    -0.13  -0.00  -0.01     0.24   0.00   0.01
     4   8    -0.00  -0.02   0.00     0.00  -0.09   0.24    -0.00   0.17   0.13
     5   8     0.02  -0.00  -0.19     0.13   0.00   0.01    -0.24  -0.00  -0.01
     6   8    -0.00  -0.27  -0.00    -0.17   0.02  -0.00    -0.09  -0.02  -0.00
     7   8     0.00   0.02  -0.00     0.00   0.09  -0.24     0.00  -0.17  -0.13
     8   1    -0.01   0.05   0.00    -0.32   0.03   0.20    -0.17  -0.07   0.11
     9   1    -0.02  -0.03  -0.08    -0.11  -0.17  -0.04     0.20   0.32  -0.03
    10   1     0.02  -0.03   0.08     0.11  -0.17  -0.04    -0.20   0.32  -0.02
    11   1    -0.00  -0.23  -0.36     0.05   0.01   0.02     0.08  -0.02  -0.03
    12   1    -0.01   0.23  -0.36    -0.09  -0.01   0.02     0.00   0.02  -0.03
    13   1    -0.02   0.03  -0.08    -0.11   0.17   0.04     0.20  -0.32   0.02
    14   1     0.00   0.23   0.36    -0.05  -0.01  -0.02    -0.08   0.02   0.03
    15   1     0.01  -0.23   0.36     0.09   0.01  -0.02    -0.00  -0.02   0.03
    16   1     0.02   0.03   0.08     0.11   0.17   0.04    -0.20  -0.32   0.03
    17   1    -0.01   0.04  -0.00    -0.32  -0.04  -0.20    -0.17   0.07  -0.11
    18   1     0.01  -0.04   0.00     0.32   0.04   0.20     0.17  -0.07   0.11
    19   1     0.01  -0.05  -0.00     0.32  -0.03  -0.20     0.17   0.07  -0.11
                      4                      5                      6
                     TU                     TU                     TU
 Frequencies --     74.9378                74.9378                74.9378
 Red. masses --      4.7633                 4.7633                 4.7633
 Frc consts  --      0.0158                 0.0158                 0.0158
 IR Inten    --     11.9075                11.9075                11.9075
  Atom  AN      X      Y      Z        X      Y      Z        X      Y      Z
     1  30    -0.00  -0.00  -0.02    -0.02   0.00   0.00     0.00  -0.02   0.00
     2   8     0.05  -0.01   0.01     0.25   0.00  -0.00    -0.00  -0.25  -0.00
     3   8    -0.05   0.00   0.25    -0.24  -0.00  -0.05     0.00   0.02  -0.01
     4   8     0.00   0.01  -0.24     0.01  -0.00   0.05    -0.00   0.25   0.01
     5   8    -0.05   0.00   0.25    -0.24  -0.00  -0.05     0.00   0.02  -0.01
     6   8     0.05  -0.01   0.01     0.25   0.00  -0.00    -0.00  -0.25  -0.00
     7   8     0.00   0.01  -0.24     0.01  -0.00   0.05    -0.00   0.25   0.01
     8   1     0.07  -0.01  -0.01     0.35   0.00  -0.15    -0.00  -0.19  -0.00
     9   1     0.01   0.01  -0.19     0.02   0.00   0.04     0.15   0.36   0.01
    10   1    -0.00   0.01  -0.19     0.02  -0.00   0.04    -0.15   0.36   0.01
    11   1    -0.04   0.15   0.35    -0.19  -0.03  -0.07     0.00   0.02  -0.01
    12   1    -0.04  -0.14   0.35    -0.19   0.03  -0.07     0.00   0.02  -0.01
    13   1    -0.00   0.01  -0.19     0.02  -0.00   0.04    -0.15   0.36   0.01
    14   1    -0.04   0.15   0.35    -0.19  -0.03  -0.07     0.00   0.02  -0.01
    15   1    -0.04  -0.14   0.35    -0.19   0.03  -0.07     0.00   0.02  -0.01
    16   1     0.01   0.01  -0.19     0.02   0.00   0.04     0.15   0.36   0.01
    17   1     0.07  -0.01   0.05     0.35   0.00   0.14    -0.00  -0.19  -0.00
    18   1     0.07  -0.01   0.05     0.35   0.00   0.14    -0.00  -0.19  -0.00
    19   1     0.07  -0.01  -0.01     0.35   0.00  -0.15    -0.00  -0.19  -0.00
                      7                      8                      9
                     TU                     TU                     TU
 Frequencies --    103.7832               103.7832               103.7832
 Red. masses --      5.6628                 5.6628                 5.6628
 Frc consts  --      0.0359                 0.0359                 0.0359
 IR Inten    --      1.9335                 1.9335                 1.9335
  Atom  AN      X      Y      Z        X      Y      Z        X      Y      Z
     1  30     0.05   0.03   0.15     0.15  -0.01  -0.05    -0.00   0.16  -0.03
     2   8    -0.05  -0.05   0.11    -0.15   0.02  -0.04     0.00  -0.24  -0.03
     3   8    -0.08   0.02  -0.15    -0.23  -0.01   0.05     0.00   0.12   0.04
     4   8     0.04  -0.03  -0.22     0.11   0.01   0.08    -0.00  -0.16   0.05
     5   8    -0.08   0.02  -0.15    -0.23  -0.01   0.05     0.00   0.12   0.04
     6   8    -0.05  -0.05   0.11    -0.15   0.02  -0.04     0.00  -0.24  -0.03
     7   8     0.04  -0.03  -0.22     0.11   0.01   0.08    -0.00  -0.16   0.05
     8   1    -0.11  -0.03   0.19    -0.31   0.01   0.18     0.00  -0.13  -0.03
     9   1    -0.01  -0.07  -0.12     0.13   0.03   0.04    -0.22  -0.32   0.03
    10   1     0.09  -0.07  -0.12     0.10   0.02   0.04     0.22  -0.32   0.03
    11   1    -0.04  -0.19  -0.30    -0.12   0.07   0.11     0.00   0.17   0.07
    12   1    -0.04   0.24  -0.30    -0.12  -0.08   0.11     0.00   0.07   0.07
    13   1     0.09  -0.07  -0.12     0.10   0.02   0.04     0.22  -0.32   0.03
    14   1    -0.04  -0.19  -0.30    -0.12   0.07   0.11     0.00   0.17   0.07
    15   1    -0.04   0.24  -0.30    -0.12  -0.08   0.11     0.00   0.07   0.07
    16   1    -0.01  -0.07  -0.12     0.13   0.03   0.04    -0.22  -0.32   0.03
    17   1    -0.11  -0.03   0.04    -0.31   0.01  -0.26    -0.00  -0.13  -0.03
    18   1    -0.11  -0.03   0.04    -0.31   0.01  -0.26    -0.00  -0.13  -0.03
    19   1    -0.11  -0.03   0.19    -0.31   0.01   0.18     0.00  -0.13  -0.03
                     10                     11                     12
                     EU                     EU                     EG
 Frequencies --    216.8176               216.8176               251.2392
 Red. masses --      1.0078                 1.0078                 5.6942
 Frc consts  --      0.0279                 0.0279                 0.2118
 IR Inten    --      0.0000                 0.0000                 0.0000
  Atom  AN      X      Y      Z        X      Y      Z        X      Y      Z
     1  30     0.00  -0.00   0.00    -0.00   0.00  -0.00    -0.00  -0.00   0.00
     2   8     0.00  -0.00  -0.00     0.00  -0.00   0.00     0.00   0.00  -0.08
     3   8    -0.00  -0.00  -0.00    -0.00   0.00   0.00     0.00   0.31  -0.00
     4   8     0.00  -0.00  -0.00    -0.00   0.00   0.00    -0.23  -0.00   0.00
     5   8     0.00   0.00   0.00     0.00  -0.00  -0.00    -0.00  -0.31   0.00
     6   8     0.00  -0.00   0.00    -0.00  -0.00  -0.00    -0.00  -0.00   0.08
     7   8    -0.00   0.00  -0.00     0.00  -0.00  -0.00     0.23   0.00   0.00
     8   1    -0.00   0.01   0.00     0.00   0.41  -0.00    -0.00  -0.00   0.08
     9   1     0.00  -0.00   0.36    -0.00   0.00   0.19    -0.24  -0.01  -0.00
    10   1     0.00  -0.00  -0.36    -0.00   0.00  -0.19    -0.24   0.01   0.00
    11   1    -0.35   0.00   0.00     0.22  -0.00  -0.00     0.00  -0.32  -0.01
    12   1     0.35   0.00   0.00    -0.22  -0.00  -0.00     0.00  -0.32   0.01
    13   1    -0.00   0.00  -0.36     0.00  -0.00  -0.19     0.24  -0.01  -0.00
    14   1    -0.35  -0.00  -0.00     0.22   0.00   0.00    -0.00   0.32   0.01
    15   1     0.35  -0.00  -0.00    -0.22   0.00   0.00    -0.00   0.32  -0.01
    16   1    -0.00   0.00   0.36    -0.00  -0.00   0.19     0.24   0.01  -0.00
    17   1     0.00  -0.01   0.00     0.00  -0.41  -0.00     0.00   0.00   0.08
    18   1    -0.00  -0.01  -0.00    -0.00  -0.41   0.00    -0.00  -0.00  -0.08
    19   1     0.00   0.01  -0.00    -0.00   0.41   0.00     0.00   0.00  -0.08
                     13                     14                     15
                     EG                     TG                     TG
 Frequencies --    251.2392               258.5663               258.5663
 Red. masses --      5.6942                 1.0633                 1.0633
 Frc consts  --      0.2118                 0.0419                 0.0419
 IR Inten    --      0.0000                 0.0000                 0.0000
  Atom  AN      X      Y      Z        X      Y      Z        X      Y      Z
     1  30     0.00  -0.00  -0.00     0.00  -0.00   0.00     0.00   0.00  -0.00
     2   8    -0.00   0.00   0.31     0.00   0.02  -0.00     0.04  -0.00   0.00
     3   8     0.00  -0.09  -0.00    -0.00  -0.00  -0.04     0.00  -0.00   0.00
     4   8    -0.22  -0.00   0.00     0.00   0.00  -0.00    -0.00  -0.01  -0.02
     5   8    -0.00   0.09   0.00     0.00   0.00   0.04    -0.00   0.00  -0.00
     6   8     0.00  -0.00  -0.31    -0.00  -0.02   0.00    -0.04   0.00  -0.00
     7   8     0.22   0.00  -0.00    -0.00  -0.00   0.00     0.00   0.01   0.02
     8   1     0.01  -0.00  -0.33    -0.00   0.31   0.00    -0.05  -0.09   0.02
     9   1    -0.23  -0.01  -0.00     0.00   0.00  -0.39    -0.00  -0.01   0.30
    10   1    -0.23   0.01  -0.00    -0.00   0.00   0.40     0.00  -0.01   0.28
    11   1     0.00   0.09   0.00    -0.02   0.02   0.05    -0.32  -0.00  -0.00
    12   1    -0.00   0.09  -0.00    -0.00  -0.02   0.05     0.45   0.00  -0.00
    13   1     0.23  -0.01   0.00     0.00  -0.00  -0.40    -0.00   0.01  -0.28
    14   1    -0.00  -0.09  -0.00     0.02  -0.02  -0.05     0.32   0.00   0.00
    15   1     0.00  -0.09   0.00     0.00   0.02  -0.05    -0.45  -0.00   0.00
    16   1     0.23   0.01   0.00    -0.00  -0.00   0.39     0.00   0.01  -0.30
    17   1    -0.01   0.00  -0.33    -0.00   0.28  -0.00    -0.05   0.08  -0.02
    18   1     0.01  -0.00   0.33     0.00  -0.28   0.00     0.05  -0.08   0.02
    19   1    -0.01   0.00   0.33     0.00  -0.31  -0.00     0.05   0.09  -0.02
                     16                     17                     18
                     TG                     TU                     TU
 Frequencies --    258.5663               300.4032               300.4032
 Red. masses --      1.0633                 1.7191                 1.7191
 Frc consts  --      0.0419                 0.0914                 0.0914
 IR Inten    --      0.0000               232.3867               232.3867
  Atom  AN      X      Y      Z        X      Y      Z        X      Y      Z
     1  30     0.00   0.00  -0.00    -0.00   0.07   0.00     0.06   0.00  -0.03
     2   8    -0.01   0.00  -0.00    -0.00   0.04  -0.00     0.01   0.00   0.05
     3   8     0.02  -0.00  -0.00    -0.00  -0.11   0.00     0.04  -0.00  -0.00
     4   8     0.00  -0.04   0.00     0.00   0.01   0.00    -0.10   0.00  -0.02
     5   8    -0.02   0.00   0.00    -0.00  -0.11   0.00     0.04  -0.00  -0.00
     6   8     0.01  -0.00   0.00    -0.00   0.04  -0.00     0.01   0.00   0.05
     7   8    -0.00   0.04  -0.00     0.00   0.01   0.00    -0.10   0.00  -0.02
     8   1     0.01  -0.37  -0.00     0.00  -0.47  -0.00     0.02  -0.00   0.03
     9   1    -0.02  -0.05  -0.08     0.03   0.03  -0.01    -0.11  -0.01   0.20
    10   1     0.02  -0.05  -0.05    -0.03   0.03  -0.01    -0.11   0.01   0.20
    11   1     0.38   0.00   0.00     0.00  -0.13  -0.01    -0.43  -0.01  -0.01
    12   1     0.20  -0.00   0.00     0.00  -0.13   0.01    -0.43   0.01  -0.01
    13   1    -0.02   0.05   0.05    -0.03   0.03  -0.01    -0.11   0.01   0.20
    14   1    -0.38  -0.00  -0.00     0.00  -0.13  -0.01    -0.43  -0.01  -0.01
    15   1    -0.20   0.00  -0.00     0.00  -0.13   0.01    -0.43   0.01  -0.01
    16   1     0.02   0.05   0.08     0.03   0.03  -0.01    -0.11  -0.01   0.20
    17   1     0.01   0.40   0.00    -0.00  -0.47  -0.00     0.03  -0.00   0.08
    18   1    -0.01  -0.40  -0.00    -0.00  -0.47  -0.00     0.03  -0.00   0.08
    19   1    -0.01   0.37   0.00     0.00  -0.47  -0.00     0.02  -0.00   0.03
                     19                     20                     21
                     TU                     TG                     TG
 Frequencies --    300.4032               339.8296               339.8296
 Red. masses --      1.7191                 1.0794                 1.0794
 Frc consts  --      0.0914                 0.0734                 0.0734
 IR Inten    --    232.3867                 0.0000                 0.0000
  Atom  AN      X      Y      Z        X      Y      Z        X      Y      Z
     1  30     0.03  -0.00   0.06     0.00   0.00  -0.00    -0.00  -0.00   0.00
     2   8     0.00  -0.00  -0.10    -0.01   0.00  -0.00     0.04   0.01   0.00
     3   8     0.02   0.00   0.01    -0.01  -0.00  -0.02     0.00   0.00  -0.02
     4   8    -0.05  -0.00   0.04    -0.00   0.04   0.00     0.00  -0.00  -0.01
     5   8     0.02   0.00   0.01     0.01   0.00   0.02    -0.00  -0.00   0.02
     6   8     0.00  -0.00  -0.10     0.01  -0.00   0.00    -0.04  -0.01  -0.00
     7   8    -0.05  -0.00   0.04     0.00  -0.04  -0.00    -0.00   0.00   0.01
     8   1     0.02   0.00  -0.13    -0.01  -0.15   0.01     0.05   0.19  -0.12
     9   1    -0.05  -0.01  -0.43    -0.13  -0.05   0.07     0.01   0.00   0.47
    10   1    -0.05   0.00  -0.43     0.13  -0.05  -0.15    -0.01   0.00   0.18
    11   1    -0.20   0.03   0.03    -0.37  -0.05  -0.02     0.30  -0.06  -0.03
    12   1    -0.20  -0.02   0.03    -0.31   0.05  -0.02    -0.24   0.06  -0.03
    13   1    -0.05   0.00  -0.43    -0.13   0.05   0.15     0.01  -0.00  -0.18
    14   1    -0.20   0.03   0.03     0.37   0.05   0.02    -0.30   0.06   0.03
    15   1    -0.20  -0.02   0.03     0.31  -0.05   0.02     0.24  -0.06   0.03
    16   1    -0.05  -0.01  -0.43     0.13   0.05  -0.07    -0.01  -0.00  -0.47
    17   1     0.00   0.00  -0.10    -0.01   0.41  -0.01     0.05   0.15   0.12
    18   1     0.00   0.00  -0.10     0.01  -0.41   0.01    -0.05  -0.15  -0.12
    19   1     0.02   0.00  -0.13     0.01   0.15  -0.01    -0.05  -0.19   0.12
                     22                     23                     24
                     TG                     AG                     TU
 Frequencies --    339.8296               345.0409               363.8260
 Red. masses --      1.0794                 5.9199                 2.0767
 Frc consts  --      0.0734                 0.4152                 0.1620
 IR Inten    --      0.0000                 0.0000               261.3775
  Atom  AN      X      Y      Z        X      Y      Z        X      Y      Z
     1  30    -0.00  -0.00  -0.00    -0.00  -0.00  -0.00     0.00  -0.06   0.00
     2   8     0.02  -0.01  -0.00    -0.00  -0.00   0.23     0.00   0.04  -0.00
     3   8    -0.00  -0.00   0.04    -0.00   0.23  -0.00    -0.00   0.16   0.00
     4   8    -0.00   0.02  -0.01     0.23   0.00   0.00    -0.00  -0.04  -0.00
     5   8     0.00   0.00  -0.04     0.00  -0.23  -0.00    -0.00   0.16   0.00
     6   8    -0.02   0.01   0.00     0.00  -0.00  -0.23     0.00   0.04  -0.00
     7   8     0.00  -0.02   0.01    -0.23  -0.00  -0.00    -0.00  -0.04  -0.00
     8   1     0.03  -0.41  -0.06     0.00  -0.00  -0.24    -0.00  -0.44   0.00
     9   1    -0.05  -0.02  -0.08     0.24   0.00  -0.00     0.12   0.05   0.00
    10   1     0.05  -0.02   0.41     0.24  -0.00  -0.00    -0.12   0.05   0.00
    11   1     0.00   0.11   0.04    -0.00  -0.24  -0.00     0.00   0.16  -0.00
    12   1    -0.28  -0.11   0.04    -0.00  -0.24   0.00     0.00   0.16   0.00
    13   1    -0.05   0.02  -0.41    -0.24   0.00   0.00    -0.12   0.05   0.00
    14   1    -0.00  -0.11  -0.04     0.00   0.24   0.00     0.00   0.16  -0.00
    15   1     0.28   0.11  -0.04     0.00   0.24  -0.00     0.00   0.16   0.00
    16   1     0.05   0.02   0.08    -0.24  -0.00   0.00     0.12   0.05   0.00
    17   1     0.03  -0.18   0.06    -0.00   0.00  -0.24    -0.00  -0.44  -0.00
    18   1    -0.03   0.18  -0.06     0.00  -0.00   0.24    -0.00  -0.44  -0.00
    19   1    -0.03   0.41   0.06    -0.00   0.00   0.24    -0.00  -0.44   0.00
                     25                     26                     27
                     TU                     TU                     AU
 Frequencies --    363.8260               363.8260               407.0733
 Red. masses --      2.0767                 2.0767                 1.0078
 Frc consts  --      0.1620                 0.1620                 0.0984
[...]
 GradGradGradGradGradGradGradGradGradGradGradGradGradGradGradGradGradGrad

 Leave Link  103 at Thu Oct  8 10:36:12 2020, MaxMem= 11811160064 cpu:               0.7 elap:               0.1
 (Enter /apps/gaussian/g16-a03/l9999.exe)
 Dipole is zero, so no output in dipole orientation.

 ----------------------------------------------------------------------

 Electric dipole moment (input orientation):
 (Debye = 10**-18 statcoulomb cm , SI units = C m)
                  (au)            (Debye)         (10**-30 SI)
   Tot        0.000000D+00      0.000000D+00      0.000000D+00
   x          0.000000D+00      0.000000D+00      0.000000D+00
   y          0.000000D+00      0.000000D+00      0.000000D+00
   z          0.000000D+00      0.000000D+00      0.000000D+00

 Dipole polarizability, Alpha (input orientation).
 (esu units = cm**3 , SI units = C**2 m**2 J**-1)
 Alpha(0;0):
               (au)            (10**-24 esu)      (10**-40 SI)
   iso        0.396535D+02      0.587604D+01      0.653797D+01
   aniso      0.000000D+00      0.000000D+00      0.000000D+00
   xx         0.396535D+02      0.587604D+01      0.653797D+01
   yx         0.000000D+00      0.000000D+00      0.000000D+00
   yy         0.396535D+02      0.587604D+01      0.653797D+01
   zx         0.000000D+00      0.000000D+00      0.000000D+00
   zy         0.000000D+00      0.000000D+00      0.000000D+00
   zz         0.396535D+02      0.587604D+01      0.653797D+01

 ----------------------------------------------------------------------
 1\1\GINC-CX1-100-2-4\Freq\RB3LYP\Gen\H12O6Zn1(2+)\GN116\08-Oct-2020\0\
 \#p freq b3lyp/gen geom=connectivity gfprint integral=grid=ultrafine p
 seudo=read symmetry=(on,follow) scf=conver=9 scf=Maxcycle=40 Empirical
 Dispersion=gd3bj\\Optimisation of ZnH2O6 complex\\2,1\Zn,0.,0.,0.\O,0.
 ,2.12223,0.\O,0.,0.,2.12223\O,-2.12223,0.,0.\O,0.,0.,-2.12223\O,0.,-2.
 12223,0.\O,2.12223,0.,0.\H,0.78283,-2.699054,0.\H,-2.699054,0.,-0.7828
 3\H,-2.699054,0.,0.78283\H,0.,0.78283,-2.699054\H,0.,-0.78283,-2.69905
 4\H,2.699054,0.,-0.78283\H,0.,-0.78283,2.699054\H,0.,0.78283,2.699054\
 H,2.699054,0.,0.78283\H,-0.78283,-2.699054,0.\H,0.78283,2.699054,0.\H,
 -0.78283,2.699054,0.\\Version=ES64L-G16RevA.03\State=1-AG\HF=-523.6850
 527\RMSD=7.447e-10\RMSF=3.909e-06\ZeroPoint=0.1475247\Thermal=0.166060
 1\Dipole=0.,0.,0.\DipoleDeriv=1.7436477,0.,0.,0.,1.7436477,0.,0.,0.,1.
 7436477,-0.5943739,0.,0.,0.,-0.7374231,0.,0.,0.,-0.690281,-0.690281,0.
 ,0.,0.,-0.5943739,0.,0.,0.,-0.7374231,-0.7374231,0.,0.,0.,-0.690281,0.
 ,0.,0.,-0.5943739,-0.690281,0.,0.,0.,-0.5943739,0.,0.,0.,-0.7374231,-0
 .5943739,0.,0.,0.,-0.7374231,0.,0.,0.,-0.690281,-0.7374231,0.,0.,0.,-0
 .690281,0.,0.,0.,-0.5943739,0.3644939,-0.0419722,0.,0.0039293,0.322915
 2,0.,0.,0.,0.387718,0.3229152,0.,-0.0039293,0.,0.387718,0.,0.0419722,0
 .,0.3644939,0.3229152,0.,0.0039293,0.,0.387718,0.,-0.0419722,0.,0.3644
 939,0.387718,0.,0.,0.,0.3644939,-0.0419722,0.,0.0039293,0.3229152,0.38
 7718,0.,0.,0.,0.3644939,0.0419722,0.,-0.0039293,0.3229152,0.3229152,0.
 ,0.0039293,0.,0.387718,0.,-0.0419722,0.,0.3644939,0.387718,0.,0.,0.,0.
 3644939,-0.0419722,0.,0.0039293,0.3229152,0.387718,0.,0.,0.,0.3644939,
 0.0419722,0.,-0.0039293,0.3229152,0.3229152,0.,-0.0039293,0.,0.387718,
 0.,0.0419722,0.,0.3644939,0.3644939,0.0419722,0.,-0.0039293,0.3229152,
 0.,0.,0.,0.387718,0.3644939,0.0419722,0.,-0.0039293,0.3229152,0.,0.,0.
 ,0.387718,0.3644939,-0.0419722,0.,0.0039293,0.3229152,0.,0.,0.,0.38771
 8\Polar=39.6534662,0.,39.6534662,0.,0.,39.6534662\Quadrupole=0.,0.,0.,
 0.,0.,0.\PG=TH [O(Zn1),3C2(O1.O1),3SGH(H4)]\NImag=0\\0.11348293,0.,0.1
 1348293,0.,0.,0.11348293,-0.01477121,0.,0.,0.69301949,0.,-0.04249194,0
 .,0.,0.49938487,0.,0.,-0.00682943,0.,0.,0.00781964,-0.00682943,0.,0.,0
 .00232329,0.,0.,0.00781964,0.,-0.01477121,0.,0.,-0.00374704,0.00548386
 ,0.,0.69301949,0.,0.,-0.04249194,0.,0.00464866,-0.00171327,0.,0.,0.499
 38487,-0.04249194,0.,0.,-0.00374704,-0.00464866,0.,-0.00171327,0.,-0.0
 0464866,0.49938487,0.,-0.00682943,0.,-0.00548386,-0.00171327,0.,0.,0.0
 0232329,0.,0.,0.00781964,0.,0.,-0.01477121,0.,0.,0.00232329,-0.0054838
 6,0.,-0.00374704,0.,0.,0.69301949,-0.00682943,0.,0.,0.00232329,0.,0.,0
 .00083617,0.,0.,-0.00171327,0.,0.00548386,0.00781964,0.,-0.01477121,0.
 ,0.,-0.00374704,-0.00548386,0.,0.00097814,0.,0.,0.00232329,0.,0.,0.693
 01949,0.,0.,-0.04249194,0.,-0.00464866,-0.00171327,0.,0.,-0.00033504,0
 .00464866,0.,-0.00374704,0.,0.,0.49938487,-0.01477121,0.,0.,0.00097814
 ,0.,0.,0.00232329,0.,0.,-0.00374704,0.00548386,0.,0.00232329,0.,0.,0.6
 9301949,0.,-0.04249194,0.,0.,-0.00033504,0.,0.,-0.00374704,-0.00464866
 ,0.00464866,-0.00171327,0.,0.,-0.00374704,0.00464866,0.,0.49938487,0.,
 0.,-0.00682943,0.,0.,0.00083617,0.,-0.00548386,-0.00171327,0.,0.,0.002
 32329,0.,0.00548386,-0.00171327,0.,0.,0.00781964,-0.04249194,0.,0.,-0.
 00374704,0.00464866,0.,-0.00171327,0.,0.00464866,-0.00033504,0.,0.,-0.
 00171327,0.,-0.00464866,-0.00374704,-0.00464866,0.,0.49938487,0.,-0.00
 682943,0.,0.00548386,-0.00171327,0.,0.,0.00232329,0.,0.,0.00083617,0.,
 0.,0.00232329,0.,-0.00548386,-0.00171327,0.,0.,0.00781964,0.,0.,-0.014
 77121,0.,0.,0.00232329,0.00548386,0.,-0.00374704,0.,0.,0.00097814,-0.0
 0548386,0.,-0.00374704,0.,0.,0.00232329,0.,0.,0.69301949,0.00364455,0.
 00486858,0.,-0.00035011,-0.00021309,0.,-0.00064711,-0.00074125,-0.0007
 3500,0.00081126,-0.00070068,0.,-0.00064711,-0.00074125,0.00073500,-0.3
 3667470,0.18274181,0.,-0.00117523,0.00219140,0.,0.36030242,0.00578336,
 -0.00166922,0.,-0.00031545,0.00021578,0.,-0.00048665,0.00016245,-0.000
 01701,0.00065630,-0.00005043,0.,-0.00048665,0.00016245,0.00001701,0.23
 475531,-0.22174126,0.,0.00046631,0.00282768,0.,-0.21342722,0.20392441,
 0.,0.,0.00170023,0.,0.,-0.00028041,-0.00052247,0.00047915,-0.00046459,
 0.,0.,0.00022840,0.00052247,-0.00047915,-0.00046459,0.,0.,-0.00272582,
 0.,0.,-0.00171795,0.,0.,0.00371216,-0.00166922,0.,-0.00578336,0.000162
 45,-0.00001701,0.00048665,-0.00005043,0.,-0.00065630,-0.22174126,0.,-0
 .23475531,0.00282768,0.,-0.00046631,0.00016245,0.00001701,0.00048665,0
 .00021578,0.,0.00031545,-0.00005185,0.00016499,0.00004269,0.20392441,0
 .,0.00170023,0.,0.00047915,-0.00046459,0.00052247,0.,0.00022840,0.,0.,
 -0.00272582,0.,0.,-0.00171795,0.,-0.00047915,-0.00046459,-0.00052247,0
 .,-0.00028041,0.,0.00015994,-0.00021299,-0.00004577,0.,0.00371216,-0.0
 0486858,0.,0.00364455,0.00074125,0.00073500,-0.00064711,0.00070068,0.,
 0.00081126,-0.18274181,0.,-0.33667470,-0.00219140,0.,-0.00117523,0.000
 74125,-0.00073500,-0.00064711,0.00021309,0.,-0.00035011,-0.00009430,-0
 .00008388,0.00006196,0.21342722,0.,0.36030242,-0.00166922,0.,0.0057833
 6,0.00016245,-0.00001701,-0.00048665,0.00282768,0.,0.00046631,-0.22174
 126,0.,0.23475531,-0.00005043,0.,0.00065630,0.00016245,0.00001701,-0.0
 0048665,0.00021578,0.,-0.00031545,-0.00005185,0.00016499,-0.00004269,0
 .01808019,0.,-0.02697607,0.20392441,0.,0.00170023,0.,0.00047915,-0.000
 46459,-0.00052247,0.,-0.00171795,0.,0.,-0.00272582,0.,0.,0.00022840,0.
 ,-0.00047915,-0.00046459,0.00052247,0.,-0.00028041,0.,0.00015994,-0.00
 021299,0.00004577,0.,0.00029503,0.,0.,0.00371216,0.00486858,0.,0.00364
 455,-0.00074125,-0.00073500,-0.00064711,0.00219140,0.,-0.00117523,0.18
 274181,0.,-0.33667470,-0.00070068,0.,0.00081126,-0.00074125,0.00073500
 ,-0.00064711,-0.00021309,0.,-0.00035011,0.00009430,0.00008388,0.000061
 96,0.02697607,0.,-0.02620523,-0.21342722,0.,0.36030242,0.00170023,0.,0
 .,-0.00171795,0.,0.,-0.00028041,0.,0.,-0.00046459,0.00052247,-0.000479
 15,-0.00272582,0.,0.,0.00022840,0.,0.,-0.00046459,-0.00052247,0.000479
 15,0.00006196,-0.00004269,0.00004577,-0.00050697,-0.00070875,0.0009231
 5,-0.00021299,0.00004577,0.00015994,0.00371216,0.,0.00364455,0.0048685
 8,0.,-0.00117523,0.00219140,0.,-0.00035011,-0.00021309,0.00073500,-0.0
 0064711,-0.00074125,0.,-0.33667470,0.18274181,0.,0.00081126,-0.0007006
 8,-0.00073500,-0.00064711,-0.00074125,0.00009430,-0.00005185,0.0001599
 4,-0.00036418,0.00045900,0.00017695,0.00008388,0.00006196,0.00009430,0
 .,0.36030242,0.,0.00578336,-0.00166922,0.,0.00046631,0.00282768,0.,-0.
 00031545,0.00021578,0.00001701,-0.00048665,0.00016245,0.,0.23475531,-0
 .22174126,0.,0.00065630,-0.00005043,-0.00001701,-0.00048665,0.00016245
 ,0.00008388,0.00016499,-0.00021299,0.00051863,0.00032942,-0.00010251,0
 .00016499,-0.00004269,-0.00005185,0.,-0.21342722,0.20392441,0.00170023
 ,0.,0.,0.00022840,0.,0.,-0.00028041,0.,0.,-0.00046459,-0.00052247,-0.0
 0047915,-0.00272582,0.,0.,-0.00171795,0.,0.,-0.00046459,0.00052247,0.0
 0047915,0.00045900,0.00032942,-0.00070875,-0.00050697,0.00070875,0.000
 92315,-0.00021299,-0.00004577,0.00015994,0.00029503,0.,0.,0.00371216,0
 .,0.00364455,-0.00486858,0.,0.00081126,0.00070068,0.,-0.00035011,0.000
 21309,-0.00073500,-0.00064711,0.00074125,0.,-0.33667470,-0.18274181,0.
 ,-0.00117523,-0.00219140,0.00073500,-0.00064711,0.00074125,0.00017695,
 -0.00010251,0.00092315,0.00036418,0.00045900,-0.00017695,-0.00008388,0
 .00006196,-0.00009430,0.,-0.02620523,-0.02697607,0.,0.36030242,0.,-0.0
 0578336,-0.00166922,0.,-0.00065630,-0.00005043,0.,0.00031545,0.0002157
 8,0.00001701,0.00048665,0.00016245,0.,-0.23475531,-0.22174126,0.,-0.00
 046631,0.00282768,-0.00001701,0.00048665,0.00016245,-0.00036418,0.0005
 1863,-0.00050697,0.00051863,-0.00032942,-0.00010251,0.00016499,0.00004
 269,-0.00005185,0.,0.02697607,0.01808019,0.,0.21342722,0.20392441,-0.0
 0166922,0.,0.00578336,0.00016245,0.00001701,-0.00048665,-0.00005043,0.
 ,0.00065630,0.00021578,0.,-0.00031545,0.00282768,0.,0.00046631,0.00016
 245,-0.00001701,-0.00048665,-0.22174126,0.,0.23475531,-0.00010251,-0.0
 0051863,0.00032942,-0.00016231,0.,0.00006751,-0.00000111,0.,0.00009706
 ,-0.00050697,0.00036418,-0.00051863,-0.00050697,-0.00036418,-0.0005186
 3,0.20392441,0.,0.00170023,0.,-0.00047915,-0.00046459,0.00052247,0.,0.
 00022840,0.,0.,-0.00028041,0.,0.,-0.00171795,0.,0.00047915,-0.00046459
 ,-0.00052247,0.,-0.00272582,0.,-0.00092315,-0.00050697,0.00070875,0.,0
 .00011535,0.,0.,0.00000020,0.,0.00070875,0.00045900,0.00032942,-0.0007
 0875,0.00045900,-0.00032942,0.,0.00371216,0.00486858,0.,0.00364455,-0.
 00074125,0.00073500,-0.00064711,-0.00070068,0.,0.00081126,-0.00021309,
 0.,-0.00035011,0.00219140,0.,-0.00117523,-0.00074125,-0.00073500,-0.00
 064711,0.18274181,0.,-0.33667470,0.00017695,0.00036418,0.00045900,-0.0
 0006751,0.,0.00018824,0.00009706,0.,0.00001984,-0.00092315,0.00017695,
 -0.00010251,-0.00092315,-0.00017695,-0.00010251,-0.21342722,0.,0.36030
 242,0.00170023,0.,0.,0.00022840,0.,0.,-0.00272582,0.,0.,-0.00046459,-0
 .00052247,0.00047915,-0.00028041,0.,0.,-0.00171795,0.,0.,-0.00046459,0
 .00052247,-0.00047915,0.00045900,0.00032942,0.00070875,-0.00021299,-0.
 00004577,-0.00015994,-0.00050697,0.00070875,-0.00092315,0.00000020,0.,
 0.,0.00011535,0.,0.,-0.00021299,0.00004577,0.00015994,0.00371216,0.,0.
 00364455,0.00486858,0.,0.00081126,-0.00070068,0.,-0.33667470,0.1827418
 1,-0.00073500,-0.00064711,-0.00074125,0.,-0.00035011,-0.00021309,0.,-0
 .00117523,0.00219140,0.00073500,-0.00064711,-0.00074125,0.00017695,-0.
 00010251,-0.00092315,-0.00008388,0.00006196,0.00009430,0.00036418,0.00
 045900,0.00017695,0.,0.00001984,0.00009706,0.,0.00018824,-0.00006751,0
 .00008388,0.00006196,0.00009430,0.,0.36030242,0.,0.00578336,-0.0016692
 2,0.,0.00065630,-0.00005043,0.,0.23475531,-0.22174126,-0.00001701,-0.0
 0048665,0.00016245,0.,-0.00031545,0.00021578,0.,0.00046631,0.00282768,
 0.00001701,-0.00048665,0.00016245,0.00036418,-0.00051863,-0.00050697,-
 0.00016499,-0.00004269,-0.00005185,-0.00051863,0.00032942,-0.00010251,
 0.,0.00009706,-0.00000111,0.,0.00006751,-0.00016231,0.00016499,-0.0000
 4269,-0.00005185,0.,-0.21342722,0.20392441,0.00170023,0.,0.,-0.0017179
 5,0.,0.,-0.00272582,0.,0.,-0.00046459,0.00052247,0.00047915,-0.0002804
 1,0.,0.,0.00022840,0.,0.,-0.00046459,-0.00052247,-0.00047915,0.0000619
 6,-0.00004269,-0.00004577,-0.00021299,0.00004577,-0.00015994,-0.000506
 97,-0.00070875,-0.00092315,0.00011535,0.,0.,0.00000020,0.,0.,-0.000212
 99,-0.00004577,0.00015994,0.00029503,0.,0.,0.00371216,0.,0.00364455,-0
 .00486858,0.,-0.00117523,-0.00219140,0.,-0.33667470,-0.18274181,0.0007
 3500,-0.00064711,0.00074125,0.,-0.00035011,0.00021309,0.,0.00081126,0.
 00070068,-0.00073500,-0.00064711,0.00074125,0.00009430,-0.00005185,-0.
 00015994,0.00008388,0.00006196,-0.00009430,-0.00036418,0.00045900,-0.0
 0017695,0.,0.00018824,0.00006751,0.,0.00001984,-0.00009706,-0.00008388
 ,0.00006196,-0.00009430,0.,-0.02620523,-0.02697607,0.,0.36030242,0.,-0
 .00578336,-0.00166922,0.,-0.00046631,0.00282768,0.,-0.23475531,-0.2217
 4126,-0.00001701,0.00048665,0.00016245,0.,0.00031545,0.00021578,0.,-0.
 00065630,-0.00005043,0.00001701,0.00048665,0.00016245,-0.00008388,-0.0
 0016499,-0.00021299,-0.00016499,0.00004269,-0.00005185,-0.00051863,-0.
 00032942,-0.00010251,0.,-0.00006751,-0.00016231,0.,-0.00009706,-0.0000
 0111,0.00016499,0.00004269,-0.00005185,0.,0.02697607,0.01808019,0.,0.2
 1342722,0.20392441,-0.00166922,0.,-0.00578336,0.00016245,0.00001701,0.
 00048665,0.00282768,0.,-0.00046631,0.00021578,0.,0.00031545,-0.0000504
 3,0.,-0.00065630,0.00016245,-0.00001701,0.00048665,-0.22174126,0.,-0.2
 3475531,-0.00010251,-0.00051863,-0.00032942,-0.00000111,0.,-0.00009706
 ,-0.00016231,0.,-0.00006751,-0.00021299,-0.00008388,-0.00016499,-0.000
 21299,0.00008388,-0.00016499,0.01808019,0.,0.02697607,-0.00050697,-0.0
 0036418,0.00051863,-0.00050697,0.00036418,0.00051863,0.20392441,0.,0.0
 0170023,0.,-0.00047915,-0.00046459,-0.00052247,0.,-0.00171795,0.,0.,-0
 .00028041,0.,0.,0.00022840,0.,0.00047915,-0.00046459,0.00052247,0.,-0.
 00272582,0.,-0.00092315,-0.00050697,-0.00070875,0.,0.00000020,0.,0.,0.
 00011535,0.,-0.00004577,0.00006196,-0.00004269,0.00004577,0.00006196,0
 .00004269,0.,0.00029503,0.,-0.00070875,0.00045900,0.00032942,0.0007087
 5,0.00045900,-0.00032942,0.,0.00371216,-0.00486858,0.,0.00364455,0.000
 74125,-0.00073500,-0.00064711,-0.00219140,0.,-0.00117523,0.00021309,0.
 ,-0.00035011,0.00070068,0.,0.00081126,0.00074125,0.00073500,-0.0006471
 1,-0.18274181,0.,-0.33667470,-0.00017695,-0.00036418,0.00045900,-0.000
 09706,0.,0.00001984,0.00006751,0.,0.00018824,-0.00015994,0.00009430,-0
 .00005185,-0.00015994,-0.00009430,-0.00005185,-0.02697607,0.,-0.026205
 23,0.00092315,0.00017695,-0.00010251,0.00092315,-0.00017695,-0.0001025
 1,0.21342722,0.,0.36030242,0.00364455,-0.00486858,0.,-0.00035011,0.000
 21309,0.,-0.00064711,0.00074125,0.00073500,-0.00117523,-0.00219140,0.,
 -0.00064711,0.00074125,-0.00073500,-0.33667470,-0.18274181,0.,0.000811
 26,0.00070068,0.,-0.02620523,-0.02697607,0.,-0.00010251,0.00092315,-0.
 00017695,-0.00010251,0.00092315,0.00017695,0.00006196,-0.00009430,-0.0
 0008388,0.00045900,-0.00017695,0.00036418,-0.00005185,-0.00015994,0.00
 009430,0.00045900,-0.00017695,-0.00036418,0.00006196,-0.00009430,0.000
 08388,-0.00005185,-0.00015994,-0.00009430,0.36030242,-0.00578336,-0.00
 166922,0.,0.00031545,0.00021578,0.,0.00048665,0.00016245,-0.00001701,-
 0.00046631,0.00282768,0.,0.00048665,0.00016245,0.00001701,-0.23475531,
 -0.22174126,0.,-0.00065630,-0.00005043,0.,0.02697607,0.01808019,0.,0.0
 0051863,-0.00050697,0.00036418,0.00051863,-0.00050697,-0.00036418,0.00
 004269,-0.00005185,0.00016499,-0.00032942,-0.00010251,0.00051863,-0.00
 016499,-0.00021299,-0.00008388,-0.00032942,-0.00010251,-0.00051863,0.0
 0004269,-0.00005185,-0.00016499,-0.00016499,-0.00021299,0.00008388,0.2
 1342722,0.20392441,0.,0.,0.00170023,0.,0.,-0.00028041,0.00052247,0.000
 47915,-0.00046459,0.,0.,-0.00171795,-0.00052247,-0.00047915,-0.0004645
 9,0.,0.,-0.00272582,0.,0.,0.00022840,0.,0.,0.00029503,-0.00032942,0.00
 070875,0.00045900,0.00032942,-0.00070875,0.00045900,-0.00004577,0.0001
 5994,-0.00021299,0.00070875,0.00092315,-0.00050697,-0.00004269,-0.0000
 4577,0.00006196,-0.00070875,-0.00092315,-0.00050697,0.00004577,-0.0001
 5994,-0.00021299,0.00004269,0.00004577,0.00006196,0.,0.,0.00371216,0.0
 0364455,-0.00486858,0.,-0.33667470,-0.18274181,0.,-0.00064711,0.000741
 25,-0.00073500,0.00081126,0.00070068,0.,-0.00064711,0.00074125,0.00073
 500,-0.00035011,0.00021309,0.,-0.00117523,-0.00219140,0.,0.00018824,0.
 00006751,0.,-0.00005185,-0.00015994,-0.00009430,-0.00005185,-0.0001599
 4,0.00009430,0.00045900,-0.00017695,-0.00036418,0.00006196,-0.00009430
 ,0.00008388,-0.00010251,0.00092315,0.00017695,0.00006196,-0.00009430,-
 0.00008388,0.00045900,-0.00017695,0.00036418,-0.00010251,0.00092315,-0
 .00017695,0.00001984,-0.00009706,0.,0.36030242,-0.00578336,-0.00166922
 ,0.,-0.23475531,-0.22174126,0.,0.00048665,0.00016245,0.00001701,-0.000
 65630,-0.00005043,0.,0.00048665,0.00016245,-0.00001701,0.00031545,0.00
 021578,0.,-0.00046631,0.00282768,0.,-0.00006751,-0.00016231,0.,-0.0001
 6499,-0.00021299,0.00008388,-0.00016499,-0.00021299,-0.00008388,-0.000
 32942,-0.00010251,-0.00051863,0.00004269,-0.00005185,-0.00016499,0.000
 51863,-0.00050697,-0.00036418,0.00004269,-0.00005185,0.00016499,-0.000
 32942,-0.00010251,0.00051863,0.00051863,-0.00050697,0.00036418,-0.0000
 9706,-0.00000111,0.,0.21342722,0.20392441,0.,0.,0.00170023,0.,0.,-0.00
 272582,-0.00052247,-0.00047915,-0.00046459,0.,0.,0.00022840,0.00052247
 ,0.00047915,-0.00046459,0.,0.,-0.00028041,0.,0.,-0.00171795,0.,0.,0.00
 011535,0.00004269,0.00004577,0.00006196,-0.00004269,-0.00004577,0.0000
 6196,-0.00070875,-0.00092315,-0.00050697,0.00004577,-0.00015994,-0.000
 21299,0.00032942,-0.00070875,0.00045900,-0.00004577,0.00015994,-0.0002
 1299,0.00070875,0.00092315,-0.00050697,-0.00032942,0.00070875,0.000459
 00,0.,0.,0.00000020,0.,0.,0.00371216,0.00364455,0.00486858,0.,-0.33667
 470,0.18274181,0.,-0.00064711,-0.00074125,0.00073500,-0.00117523,0.002
 19140,0.,-0.00064711,-0.00074125,-0.00073500,-0.00035011,-0.00021309,0
 .,0.00081126,-0.00070068,0.,0.00001984,0.00009706,0.,-0.00010251,-0.00
 092315,-0.00017695,-0.00010251,-0.00092315,0.00017695,0.00045900,0.000
 17695,0.00036418,0.00006196,0.00009430,-0.00008388,-0.00005185,0.00015
 994,0.00009430,0.00006196,0.00009430,0.00008388,0.00045900,0.00017695,
 -0.00036418,-0.00005185,0.00015994,-0.00009430,0.00018824,-0.00006751,
 0.,-0.02620523,0.02697607,0.,0.36030242,0.00578336,-0.00166922,0.,0.23
 475531,-0.22174126,0.,-0.00048665,0.00016245,0.00001701,0.00046631,0.0
 0282768,0.,-0.00048665,0.00016245,-0.00001701,-0.00031545,0.00021578,0
 .,0.00065630,-0.00005043,0.,0.00009706,-0.00000111,0.,-0.00051863,-0.0
 0050697,-0.00036418,-0.00051863,-0.00050697,0.00036418,0.00032942,-0.0
 0010251,-0.00051863,-0.00004269,-0.00005185,-0.00016499,0.00016499,-0.
 00021299,0.00008388,-0.00004269,-0.00005185,0.00016499,0.00032942,-0.0
 0010251,0.00051863,0.00016499,-0.00021299,-0.00008388,0.00006751,-0.00
 016231,0.,-0.02697607,0.01808019,0.,-0.21342722,0.20392441,0.,0.,0.001
 70023,0.,0.,-0.00272582,0.00052247,-0.00047915,-0.00046459,0.,0.,-0.00
 171795,-0.00052247,0.00047915,-0.00046459,0.,0.,-0.00028041,0.,0.,0.00
 022840,0.,0.,0.00000020,-0.00032942,-0.00070875,0.00045900,0.00032942,
 0.00070875,0.00045900,0.00070875,-0.00092315,-0.00050697,-0.00004577,-
 0.00015994,-0.00021299,-0.00004269,0.00004577,0.00006196,0.00004577,0.
 00015994,-0.00021299,-0.00070875,0.00092315,-0.00050697,0.00004269,-0.
 00004577,0.00006196,0.,0.,0.00011535,0.,0.,0.00029503,0.,0.,0.00371216
 \\0.,0.,0.,0.,0.00000706,0.,0.,0.,0.00000706,-0.00000706,0.,0.,0.,0.,-
 0.00000706,0.,-0.00000706,0.,0.00000706,0.,0.,0.00000689,0.00000050,0.
 ,0.00000050,0.,-0.00000689,0.00000050,0.,0.00000689,0.,0.00000689,0.00
 000050,0.,-0.00000689,0.00000050,-0.00000050,0.,-0.00000689,0.,-0.0000
 0689,-0.00000050,0.,0.00000689,-0.00000050,-0.00000050,0.,0.00000689,-
 0.00000689,0.00000050,0.,0.00000689,-0.00000050,0.,-0.00000689,-0.0000
 0050,0.\\\@


 ONLY A FOOL KNOWS EVERYTHING.

               -- THE CHEMIST ANALYST, SEPTEMBER 1946
 Job cpu time:       0 days  0 hours 14 minutes 13.0 seconds.
 Elapsed time:       0 days  0 hours  0 minutes 36.2 seconds.
 File lengths (MBytes):  RWF=     45 Int=      0 D2E=      0 Chk=      2 Scr=      1
 Normal termination of Gaussian 16 at Thu Oct  8 10:36:13 2020.
