 Default is to use a total of   8 processors:
                                8 via shared-memory
                                1 via Linda
 Entering Link 1 = C:\G09W\l1.exe PID=      9688.
  
 Copyright (c) 1988,1990,1992,1993,1995,1998,2003,2009,2013,
            Gaussian, Inc.  All Rights Reserved.
  
 This is part of the Gaussian(R) 09 program.  It is based on
 the Gaussian(R) 03 system (copyright 2003, Gaussian, Inc.),
 the Gaussian(R) 98 system (copyright 1998, Gaussian, Inc.),
 the Gaussian(R) 94 system (copyright 1995, Gaussian, Inc.),
 the Gaussian 92(TM) system (copyright 1992, Gaussian, Inc.),
 the Gaussian 90(TM) system (copyright 1990, Gaussian, Inc.),
 the Gaussian 88(TM) system (copyright 1988, Gaussian, Inc.),
 the Gaussian 86(TM) system (copyright 1986, Carnegie Mellon
 University), and the Gaussian 82(TM) system (copyright 1983,
 Carnegie Mellon University). Gaussian is a federally registered
 trademark of Gaussian, Inc.
  
 This software contains proprietary and confidential information,
 including trade secrets, belonging to Gaussian, Inc.
  
 This software is provided under written license and may be
 used, copied, transmitted, or stored only in accord with that
 written license.
  
 The following legend is applicable only to US Government
 contracts under FAR:
  
                    RESTRICTED RIGHTS LEGEND
  
 Use, reproduction and disclosure by the US Government is
 subject to restrictions as set forth in subparagraphs (a)
 and (c) of the Commercial Computer Software - Restricted
 Rights clause in FAR 52.227-19.
  
 Gaussian, Inc.
 340 Quinnipiac St., Bldg. 40, Wallingford CT 06492
  
  
 ---------------------------------------------------------------
 Warning -- This program may not be used in any manner that
 competes with the business of Gaussian, Inc. or will provide
 assistance to any competitor of Gaussian, Inc.  The licensee
 of this program is prohibited from giving any competitor of
 Gaussian, Inc. access to this program.  By using this program,
 the user acknowledges that Gaussian, Inc. is engaged in the
 business of creating and licensing software in the field of
 computational chemistry and represents and warrants to the
 licensee that it is not a competitor of Gaussian, Inc. and that
 it will not use this program in any manner prohibited above.
 ---------------------------------------------------------------
  

 Cite this work as:
 Gaussian 09, Revision D.01,
 M. J. Frisch, G. W. Trucks, H. B. Schlegel, G. E. Scuseria, 
 M. A. Robb, J. R. Cheeseman, G. Scalmani, V. Barone, B. Mennucci, 
 G. A. Petersson, H. Nakatsuji, M. Caricato, X. Li, H. P. Hratchian, 
 A. F. Izmaylov, J. Bloino, G. Zheng, J. L. Sonnenberg, M. Hada, 
 M. Ehara, K. Toyota, R. Fukuda, J. Hasegawa, M. Ishida, T. Nakajima, 
 Y. Honda, O. Kitao, H. Nakai, T. Vreven, J. A. Montgomery, Jr., 
 J. E. Peralta, F. Ogliaro, M. Bearpark, J. J. Heyd, E. Brothers, 
 K. N. Kudin, V. N. Staroverov, T. Keith, R. Kobayashi, J. Normand, 
 K. Raghavachari, A. Rendell, J. C. Burant, S. S. Iyengar, J. Tomasi, 
 M. Cossi, N. Rega, J. M. Millam, M. Klene, J. E. Knox, J. B. Cross, 
 V. Bakken, C. Adamo, J. Jaramillo, R. Gomperts, R. E. Stratmann, 
 O. Yazyev, A. J. Austin, R. Cammi, C. Pomelli, J. W. Ochterski, 
 R. L. Martin, K. Morokuma, V. G. Zakrzewski, G. A. Voth, 
 P. Salvador, J. J. Dannenberg, S. Dapprich, A. D. Daniels, 
 O. Farkas, J. B. Foresman, J. V. Ortiz, J. Cioslowski, 
 and D. J. Fox, Gaussian, Inc., Wallingford CT, 2013.
 
 ******************************************
 Gaussian 09:  EM64W-G09RevD.01 13-Apr-2013
                20-Jul-2021 
 ******************************************
 %chk=\\icnas1.cc.ic.ac.uk\dp1820\Gaussian\temperature\H2O 298.chk
 Default route:  MaxDisk=10GB
 ----------------------------------------------------------------------
 #T opt freq b3lyp/6-31g(d,p) geom=connectivity Temperature=298.15 inte
 gral=grid=ultrafine
 ----------------------------------------------------------------------
 -------------------
 H2O opt+freq 298.15
 -------------------
 Symbolic Z-matrix:
 Charge =  0 Multiplicity = 1
 O                     0.        0.       -0.11081 
 H                     0.       -0.81664   0.46633 
 H                     0.        0.81664   0.46633 
 

 GradGradGradGradGradGradGradGradGradGradGradGradGradGradGradGradGradGrad
 Initialization pass.
                           ----------------------------
                           !    Initial Parameters    !
                           ! (Angstroms and Degrees)  !
 --------------------------                            --------------------------
 ! Name  Definition              Value          Derivative Info.                !
 --------------------------------------------------------------------------------
 ! R1    R(1,2)                  1.0            estimate D2E/DX2                !
 ! R2    R(1,3)                  1.0            estimate D2E/DX2                !
 ! A1    A(2,1,3)              109.5            estimate D2E/DX2                !
 --------------------------------------------------------------------------------
 Number of steps in this run=     20 maximum allowed number of steps=    100.
 GradGradGradGradGradGradGradGradGradGradGradGradGradGradGradGradGradGrad

                    Distance matrix (angstroms):
                    1          2          3
     1  O    0.000000
     2  H    1.000000   0.000000
     3  H    1.000000   1.633283   0.000000
 Framework group  C2V[C2(O),SGV(H2)]
 Deg. of freedom     2
                         Standard orientation:                         
 ---------------------------------------------------------------------
 Center     Atomic      Atomic             Coordinates (Angstroms)
 Number     Number       Type             X           Y           Z
 ---------------------------------------------------------------------
      1          8           0        0.000000    0.000000    0.115429
      2          1           0        0.000000    0.816642   -0.461716
      3          1           0        0.000000   -0.816642   -0.461716
 ---------------------------------------------------------------------
 Rotational constants (GHZ):    847.5733630    375.9578014    260.4362090
    25 basis functions,    42 primitive gaussians,    25 cartesian basis functions
     5 alpha electrons        5 beta electrons
       nuclear repulsion energy         8.7908313108 Hartrees.
 NAtoms=    3 NActive=    3 NUniq=    2 SFac= 2.25D+00 NAtFMM=   60 NAOKFM=F Big=F
 ExpMin= 1.61D-01 ExpMax= 5.48D+03 ExpMxC= 8.25D+02 IAcc=3 IRadAn=         5 AccDes= 0.00D+00
 Harris functional with IExCor=  402 and IRadAn=       5 diagonalized for initial guess.
 HarFok:  IExCor=  402 AccDes= 0.00D+00 IRadAn=         5 IDoV= 1 UseB2=F ITyADJ=14
 ICtDFT=  3500011 ScaDFX=  1.000000  1.000000  1.000000  1.000000
 FoFCou: FMM=F IPFlag=           0 FMFlag=      100000 FMFlg1=           0
         NFxFlg=           0 DoJE=T BraDBF=F KetDBF=T FulRan=T
         wScrn=  0.000000 ICntrl=     500 IOpCl=  0 I1Cent=   200000004 NGrid=           0
         NMat0=    1 NMatS0=      1 NMatT0=    0 NMatD0=    1 NMtDS0=    0 NMtDT0=    0
 Petite list used in FoFCou.
 Initial guess orbital symmetries:
       Occupied  (A1) (A1) (B2) (A1) (B1)
       Virtual   (A1) (B2) (A1) (B2) (B1) (A1) (B2) (A1) (A2) (A1)
                 (B1) (A1) (B2) (B2) (B1) (A2) (A1) (A1) (B2) (A1)
 The electronic state of the initial guess is 1-A1.
 Integral accuracy reduced to 1.0D-05 until final iterations.
 Initial convergence to 1.0D-05 achieved.  Increase integral accuracy.
 SCF Done:  E(RB3LYP) =  -76.4164438369     A.U. after    9 cycles
            NFock=  9  Conv=0.10D-08     -V/T= 2.0094

 **********************************************************************

            Population analysis using the SCF density.

 **********************************************************************

 Orbital symmetries:
       Occupied  (A1) (A1) (B2) (A1) (B1)
       Virtual   (A1) (B2) (B2) (A1) (A1) (B1) (B2) (A1) (A2) (A1)
                 (B1) (A1) (B2) (B2) (B1) (A2) (A1) (A1) (B2) (A1)
 The electronic state is 1-A1.
 Alpha  occ. eigenvalues --  -19.14015  -0.97834  -0.51130  -0.35705  -0.28742
 Alpha virt. eigenvalues --    0.05529   0.14052   0.76079   0.76766   0.88721
 Alpha virt. eigenvalues --    0.89287   1.01872   1.14872   1.51637   1.57819
 Alpha virt. eigenvalues --    1.66221   2.18802   2.19206   2.40020   2.58865
 Alpha virt. eigenvalues --    2.63569   2.95617   3.25442   3.47327   3.70003
          Condensed to atoms (all electrons):
 Mulliken charges:
               1
     1  O   -0.623887
     2  H    0.311943
     3  H    0.311943
 Sum of Mulliken charges =   0.00000
 Mulliken charges with hydrogens summed into heavy atoms:
               1
     1  O    0.000000
 Electronic spatial extent (au):  <R**2>=             19.5493
 Charge=              0.0000 electrons
 Dipole moment (field-independent basis, Debye):
    X=              0.0000    Y=              0.0000    Z=             -1.9631  Tot=              1.9631
 Calling FoFJK, ICntrl=      2127 FMM=F ISym2X=1 I1Cent= 0 IOpClX= 0 NMat=1 NMatS=1 NMatT=0.

 GradGradGradGradGradGradGradGradGradGradGradGradGradGradGradGradGradGrad
 FormGI is forming the generalized inverse of G from B-inverse, IUseBI=4.
 Internal  Forces:  Max     0.033377712 RMS     0.029529902
 Step number   1 out of a maximum of   20
 All quantities printed in internal units (Hartrees-Bohrs-Radians)
 Mixed Optimization -- RFO/linear search
 Second derivative matrix not updated -- first step.
 ITU=  0
     Eigenvalues ---    0.16000   0.47688   0.47688
 Linear search not attempted -- first point.
 Iteration  1 RMS(Cart)=  0.10110163 RMS(Int)=  0.00371159
 Iteration  2 RMS(Cart)=  0.00242241 RMS(Int)=  0.00000525
 Iteration  3 RMS(Cart)=  0.00000598 RMS(Int)=  0.00000000
 Iteration  4 RMS(Cart)=  0.00000000 RMS(Int)=  0.00000000
 ClnCor:  largest displacement from symmetrization is 1.11D-15 for atom     3.
 Variable       Old X    -DE/DX   Delta X   Delta X   Delta X     New X
                                 (Linear)    (Quad)   (Total)
    R1        1.88973  -0.03338   0.00000  -0.06899  -0.06899   1.82074
    R2        1.88973  -0.03338   0.00000  -0.06899  -0.06899   1.82074
    A1        1.91114  -0.01970   0.00000  -0.11799  -0.11799   1.79315
         Item               Value     Threshold  Converged?
 Maximum Force            0.033378     0.000450     NO 
 RMS     Force            0.029530     0.000300     NO 
 Maximum Displacement     0.120881     0.001800     NO 
 RMS     Displacement     0.101055     0.001200     NO 
 GradGradGradGradGradGradGradGradGradGradGradGradGradGradGradGradGradGrad

                    Distance matrix (angstroms):
                    1          2          3
     1  O    0.000000
     2  H    0.963493   0.000000
     3  H    0.963493   1.505348   0.000000
 Framework group  C2V[C2(O),SGV(H2)]
 Deg. of freedom     2
                         Standard orientation:                         
 ---------------------------------------------------------------------
 Center     Atomic      Atomic             Coordinates (Angstroms)
 Number     Number       Type             X           Y           Z
 ---------------------------------------------------------------------
      1          8           0        0.000000    0.000000    0.120300
      2          1           0        0.000000    0.752674   -0.481198
      3          1           0        0.000000   -0.752674   -0.481198
 ---------------------------------------------------------------------
 Rotational constants (GHZ):    780.3312491    442.5764007    282.4057856
    25 basis functions,    42 primitive gaussians,    25 cartesian basis functions
     5 alpha electrons        5 beta electrons
       nuclear repulsion energy         9.1391808513 Hartrees.
 NAtoms=    3 NActive=    3 NUniq=    2 SFac= 2.25D+00 NAtFMM=   60 NAOKFM=F Big=F
 Initial guess from the checkpoint file:  "\\icnas1.cc.ic.ac.uk\dp1820\Gaussian\temperature\H2O 298.chk"
 B after Tr=     0.000000    0.000000    0.000000
         Rot=    1.000000    0.000000    0.000000    0.000000 Ang=   0.00 deg.
 Initial guess orbital symmetries:
       Occupied  (A1) (A1) (B2) (A1) (B1)
       Virtual   (A1) (A1) (A1) (A1) (A1) (A1) (A1) (A1) (A1) (A2)
                 (A2) (B1) (B1) (B1) (B2) (B2) (B2) (B2) (B2) (B2)
 ExpMin= 1.61D-01 ExpMax= 5.48D+03 ExpMxC= 8.25D+02 IAcc=2 IRadAn=         4 AccDes= 0.00D+00
 Harris functional with IExCor=  402 and IRadAn=       4 diagonalized for initial guess.
 HarFok:  IExCor=  402 AccDes= 0.00D+00 IRadAn=         4 IDoV= 1 UseB2=F ITyADJ=14
 ICtDFT=  3500011 ScaDFX=  1.000000  1.000000  1.000000  1.000000
 FoFCou: FMM=F IPFlag=           0 FMFlag=      100000 FMFlg1=           0
         NFxFlg=           0 DoJE=T BraDBF=F KetDBF=T FulRan=T
         wScrn=  0.000000 ICntrl=     500 IOpCl=  0 I1Cent=   200000004 NGrid=           0
         NMat0=    1 NMatS0=      1 NMatT0=    0 NMatD0=    1 NMtDS0=    0 NMtDT0=    0
 Petite list used in FoFCou.
 Integral accuracy reduced to 1.0D-05 until final iterations.
 Initial convergence to 1.0D-05 achieved.  Increase integral accuracy.
 SCF Done:  E(RB3LYP) =  -76.4197015588     A.U. after    9 cycles
            NFock=  9  Conv=0.12D-08     -V/T= 2.0077
 Calling FoFJK, ICntrl=      2127 FMM=F ISym2X=1 I1Cent= 0 IOpClX= 0 NMat=1 NMatS=1 NMatT=0.

 GradGradGradGradGradGradGradGradGradGradGradGradGradGradGradGradGradGrad
 Using GEDIIS/GDIIS optimizer.
 FormGI is forming the generalized inverse of G from B-inverse, IUseBI=4.
 Internal  Forces:  Max     0.003172267 RMS     0.002685105
 Step number   2 out of a maximum of   20
 All quantities printed in internal units (Hartrees-Bohrs-Radians)
 Mixed Optimization -- RFO/linear search
 Trust test= 9.19D-01 RLast= 1.53D-01 DXMaxT set to 4.59D-01
 ITU=  1  0
 Use linear search instead of GDIIS.
     Eigenvalues ---    0.17433   0.47688   0.49385
 Quartic linear search produced a step of -0.08354.
 Iteration  1 RMS(Cart)=  0.01047670 RMS(Int)=  0.00004810
 Iteration  2 RMS(Cart)=  0.00003307 RMS(Int)=  0.00000000
 Iteration  3 RMS(Cart)=  0.00000000 RMS(Int)=  0.00000000
 ClnCor:  largest displacement from symmetrization is 9.93D-16 for atom     3.
 Variable       Old X    -DE/DX   Delta X   Delta X   Delta X     New X
                                 (Linear)    (Quad)   (Total)
    R1        1.82074   0.00240   0.00576  -0.00177   0.00400   1.82473
    R2        1.82074   0.00240   0.00576  -0.00177   0.00400   1.82473
    A1        1.79315   0.00317   0.00986   0.00553   0.01539   1.80854
         Item               Value     Threshold  Converged?
 Maximum Force            0.003172     0.000450     NO 
 RMS     Force            0.002685     0.000300     NO 
 Maximum Displacement     0.011844     0.001800     NO 
 RMS     Displacement     0.010470     0.001200     NO 
 GradGradGradGradGradGradGradGradGradGradGradGradGradGradGradGradGradGrad

                    Distance matrix (angstroms):
                    1          2          3
     1  O    0.000000
     2  H    0.965607   0.000000
     3  H    0.965607   1.517884   0.000000
 Framework group  C2V[C2(O),SGV(H2)]
 Deg. of freedom     2
                         Standard orientation:                         
 ---------------------------------------------------------------------
 Center     Atomic      Atomic             Coordinates (Angstroms)
 Number     Number       Type             X           Y           Z
 ---------------------------------------------------------------------
      1          8           0        0.000000    0.000000    0.119399
      2          1           0        0.000000    0.758942   -0.477597
      3          1           0        0.000000   -0.758942   -0.477597
 ---------------------------------------------------------------------
 Rotational constants (GHZ):    792.1451682    435.2964168    280.9241251
    25 basis functions,    42 primitive gaussians,    25 cartesian basis functions
     5 alpha electrons        5 beta electrons
       nuclear repulsion energy         9.1170359674 Hartrees.
 NAtoms=    3 NActive=    3 NUniq=    2 SFac= 2.25D+00 NAtFMM=   60 NAOKFM=F Big=F
 Initial guess from the checkpoint file:  "\\icnas1.cc.ic.ac.uk\dp1820\Gaussian\temperature\H2O 298.chk"
 B after Tr=     0.000000    0.000000    0.000000
         Rot=    1.000000    0.000000    0.000000    0.000000 Ang=   0.00 deg.
 Initial guess orbital symmetries:
       Occupied  (A1) (A1) (B2) (A1) (B1)
       Virtual   (A1) (A1) (A1) (A1) (A1) (A1) (A1) (A1) (A1) (A2)
                 (A2) (B1) (B1) (B1) (B2) (B2) (B2) (B2) (B2) (B2)
 SCF Done:  E(RB3LYP) =  -76.4197369804     A.U. after    6 cycles
            NFock=  6  Conv=0.39D-08     -V/T= 2.0078
 Calling FoFJK, ICntrl=      2127 FMM=F ISym2X=1 I1Cent= 0 IOpClX= 0 NMat=1 NMatS=1 NMatT=0.

 GradGradGradGradGradGradGradGradGradGradGradGradGradGradGradGradGradGrad
 Using GEDIIS/GDIIS optimizer.
 FormGI is forming the generalized inverse of G from B-inverse, IUseBI=4.
 Internal  Forces:  Max     0.000309048 RMS     0.000253698
 Step number   3 out of a maximum of   20
 All quantities printed in internal units (Hartrees-Bohrs-Radians)
 Mixed Optimization -- En-DIIS/RFO-DIIS
 Trust test= 9.45D-01 RLast= 1.64D-02 DXMaxT set to 4.59D-01
 ITU=  1  1  0
 Use linear search instead of GDIIS.
     Eigenvalues ---    0.16615   0.47688   0.54827
 Quartic linear search produced a step of  0.04640.
 Iteration  1 RMS(Cart)=  0.00101367 RMS(Int)=  0.00000081
 Iteration  2 RMS(Cart)=  0.00000082 RMS(Int)=  0.00000000
 ClnCor:  largest displacement from symmetrization is 1.11D-15 for atom     3.
 Variable       Old X    -DE/DX   Delta X   Delta X   Delta X     New X
                                 (Linear)    (Quad)   (Total)
    R1        1.82473  -0.00022   0.00019  -0.00070  -0.00051   1.82422
    R2        1.82473  -0.00022   0.00019  -0.00070  -0.00051   1.82422
    A1        1.80854   0.00031   0.00071   0.00128   0.00200   1.81054
         Item               Value     Threshold  Converged?
 Maximum Force            0.000309     0.000450     YES
 RMS     Force            0.000254     0.000300     YES
 Maximum Displacement     0.001166     0.001800     YES
 RMS     Displacement     0.001013     0.001200     YES
 Optimization completed.
    -- Stationary point found.
                           ----------------------------
                           !   Optimized Parameters   !
                           ! (Angstroms and Degrees)  !
 --------------------------                            --------------------------
 ! Name  Definition              Value          Derivative Info.                !
 --------------------------------------------------------------------------------
 ! R1    R(1,2)                  0.9656         -DE/DX =   -0.0002              !
 ! R2    R(1,3)                  0.9656         -DE/DX =   -0.0002              !
 ! A1    A(2,1,3)              103.6217         -DE/DX =    0.0003              !
 --------------------------------------------------------------------------------
 GradGradGradGradGradGradGradGradGradGradGradGradGradGradGradGradGradGrad

                    Distance matrix (angstroms):
                    1          2          3
     1  O    0.000000
     2  H    0.965607   0.000000
     3  H    0.965607   1.517884   0.000000
 Framework group  C2V[C2(O),SGV(H2)]
 Deg. of freedom     2
                         Standard orientation:                         
 ---------------------------------------------------------------------
 Center     Atomic      Atomic             Coordinates (Angstroms)
 Number     Number       Type             X           Y           Z
 ---------------------------------------------------------------------
      1          8           0        0.000000    0.000000    0.119399
      2          1           0        0.000000    0.758942   -0.477597
      3          1           0        0.000000   -0.758942   -0.477597
 ---------------------------------------------------------------------
 Rotational constants (GHZ):    792.1451682    435.2964168    280.9241251

 **********************************************************************

            Population analysis using the SCF density.

 **********************************************************************

 Orbital symmetries:
       Occupied  (A1) (A1) (B2) (A1) (B1)
       Virtual   (A1) (B2) (B2) (A1) (B1) (A1) (B2) (A1) (A2) (A1)
                 (B1) (A1) (B2) (B2) (A2) (B1) (A1) (A1) (B2) (A1)
 The electronic state is 1-A1.
 Alpha  occ. eigenvalues --  -19.13811  -0.99730  -0.51468  -0.37125  -0.29198
 Alpha virt. eigenvalues --    0.06525   0.15110   0.75636   0.80553   0.89132
 Alpha virt. eigenvalues --    0.89363   1.01550   1.17572   1.52973   1.53677
 Alpha virt. eigenvalues --    1.64322   2.23840   2.26859   2.44940   2.63997
 Alpha virt. eigenvalues --    2.66721   3.02701   3.30658   3.53165   3.69218
          Condensed to atoms (all electrons):
 Mulliken charges:
               1
     1  O   -0.609671
     2  H    0.304836
     3  H    0.304836
 Sum of Mulliken charges =   0.00000
 Mulliken charges with hydrogens summed into heavy atoms:
               1
     1  O    0.000000
 Electronic spatial extent (au):  <R**2>=             19.0965
 Charge=              0.0000 electrons
 Dipole moment (field-independent basis, Debye):
    X=              0.0000    Y=              0.0000    Z=             -2.0447  Tot=              2.0447
 1|1| IMPERIAL COLLEGE-SKRS-G08-052|FOpt|RB3LYP|6-31G(d,p)|H2O1|DP1820|
 20-Jul-2021|0||#T opt freq b3lyp/6-31g(d,p) geom=connectivity Temperat
 ure=298.15 integral=grid=ultrafine||H2O opt+freq 298.15||0,1|O,0.,0.,-
 0.1240456803|H,0.,-0.7589418166,0.4729502101|H,0.,0.7589418166,0.47295
 02101||Version=EM64W-G09RevD.01|State=1-A1|HF=-76.419737|RMSD=3.904e-0
 09|RMSF=2.226e-004|Dipole=0.,0.,0.8044655|Quadrupole=-0.991799,1.11712
 4,-0.125325,0.,0.,0.|PG=C02V [C2(O1),SGV(H2)]||@


 MOST BUREAUCRACIES FUNCTION LIKE A SEPTIC TANK.
 THE LARGE CHUNKS RISE TO THE TOP.
 Job cpu time:       0 days  0 hours  0 minutes 35.0 seconds.
 File lengths (MBytes):  RWF=      5 Int=      0 D2E=      0 Chk=      1 Scr=      1
 Normal termination of Gaussian 09 at Tue Jul 20 13:16:45 2021.
 Link1:  Proceeding to internal job step number  2.
 ----------------------------------------------------------------------
 #T Geom=AllCheck Guess=TCheck SCRF=Check GenChk RB3LYP/6-31G(d,p) Freq
 ----------------------------------------------------------------------
 Structure from the checkpoint file:  "\\icnas1.cc.ic.ac.uk\dp1820\Gaussian\temperature\H2O 298.chk"
 -------------------
 H2O opt+freq 298.15
 -------------------
 Charge =  0 Multiplicity = 1
 Redundant internal coordinates found in file.
 O,0,0.,0.,-0.1240456803
 H,0,0.,-0.7589418166,0.4729502101
 H,0,0.,0.7589418166,0.4729502101
 Recover connectivity data from disk.

 GradGradGradGradGradGradGradGradGradGradGradGradGradGradGradGradGradGrad
 Initialization pass.
                           ----------------------------
                           !    Initial Parameters    !
                           ! (Angstroms and Degrees)  !
 --------------------------                            --------------------------
 ! Name  Definition              Value          Derivative Info.                !
 --------------------------------------------------------------------------------
 ! R1    R(1,2)                  0.9656         calculate D2E/DX2 analytically  !
 ! R2    R(1,3)                  0.9656         calculate D2E/DX2 analytically  !
 ! A1    A(2,1,3)              103.6217         calculate D2E/DX2 analytically  !
 --------------------------------------------------------------------------------
 Number of steps in this run=      2 maximum allowed number of steps=      2.
 GradGradGradGradGradGradGradGradGradGradGradGradGradGradGradGradGradGrad

                    Distance matrix (angstroms):
                    1          2          3
     1  O    0.000000
     2  H    0.965607   0.000000
     3  H    0.965607   1.517884   0.000000
 Framework group  C2V[C2(O),SGV(H2)]
 Deg. of freedom     2
                         Standard orientation:                         
 ---------------------------------------------------------------------
 Center     Atomic      Atomic             Coordinates (Angstroms)
 Number     Number       Type             X           Y           Z
 ---------------------------------------------------------------------
      1          8           0        0.000000    0.000000    0.119399
      2          1           0        0.000000    0.758942   -0.477597
      3          1           0        0.000000   -0.758942   -0.477597
 ---------------------------------------------------------------------
 Rotational constants (GHZ):    792.1451682    435.2964168    280.9241251
    25 basis functions,    42 primitive gaussians,    25 cartesian basis functions
     5 alpha electrons        5 beta electrons
       nuclear repulsion energy         9.1170359674 Hartrees.
 NAtoms=    3 NActive=    3 NUniq=    2 SFac= 2.25D+00 NAtFMM=   60 NAOKFM=F Big=F
 Initial guess from the checkpoint file:  "\\icnas1.cc.ic.ac.uk\dp1820\Gaussian\temperature\H2O 298.chk"
 B after Tr=     0.000000    0.000000    0.000000
         Rot=    1.000000    0.000000    0.000000    0.000000 Ang=   0.00 deg.
 Initial guess orbital symmetries:
       Occupied  (A1) (A1) (B2) (A1) (B1)
       Virtual   (A1) (B2) (B2) (A1) (B1) (A1) (B2) (A1) (A2) (A1)
                 (B1) (A1) (B2) (B2) (A2) (B1) (A1) (A1) (B2) (A1)
 SCF Done:  E(RB3LYP) =  -76.4197369804     A.U. after    1 cycles
            NFock=  1  Conv=0.30D-09     -V/T= 2.0078
 DoSCS=F DFT=T ScalE2(SS,OS)=  1.000000  1.000000
 NROrb=     25 NOA=     5 NOB=     5 NVA=    20 NVB=    20
 Symmetrizing basis deriv contribution to polar:
 IMax=3 JMax=2 DiffMx= 0.00D+00
 Calling FoFCou, ICntrl=  3107 FMM=F I1Cent=   0 AccDes= 0.00D+00.
 End of G2Drv F.D. properties file   721 does not exist.
 End of G2Drv F.D. properties file   722 does not exist.
 End of G2Drv F.D. properties file   788 does not exist.
          IDoAtm=111
 End of Minotr F.D. properties file   721 does not exist.
 End of Minotr F.D. properties file   722 does not exist.
 End of Minotr F.D. properties file   788 does not exist.

 **********************************************************************

            Population analysis using the SCF density.

 **********************************************************************

 Orbital symmetries:
       Occupied  (A1) (A1) (B2) (A1) (B1)
       Virtual   (A1) (B2) (B2) (A1) (B1) (A1) (B2) (A1) (A2) (A1)
                 (B1) (A1) (B2) (B2) (A2) (B1) (A1) (A1) (B2) (A1)
 The electronic state is 1-A1.
 Alpha  occ. eigenvalues --  -19.13811  -0.99730  -0.51468  -0.37125  -0.29198
 Alpha virt. eigenvalues --    0.06525   0.15110   0.75636   0.80553   0.89132
 Alpha virt. eigenvalues --    0.89363   1.01550   1.17572   1.52973   1.53677
 Alpha virt. eigenvalues --    1.64322   2.23840   2.26859   2.44940   2.63997
 Alpha virt. eigenvalues --    2.66721   3.02701   3.30658   3.53165   3.69218
          Condensed to atoms (all electrons):
 Mulliken charges:
               1
     1  O   -0.609671
     2  H    0.304836
     3  H    0.304836
 Sum of Mulliken charges =   0.00000
 Mulliken charges with hydrogens summed into heavy atoms:
               1
     1  O    0.000000
 APT charges:
               1
     1  O   -0.480848
     2  H    0.240424
     3  H    0.240424
 Sum of APT charges =   0.00000
 APT charges with hydrogens summed into heavy atoms:
               1
     1  O    0.000000
 Electronic spatial extent (au):  <R**2>=             19.0965
 Charge=              0.0000 electrons
 Dipole moment (field-independent basis, Debye):
    X=              0.0000    Y=              0.0000    Z=             -2.0447  Tot=              2.0447
  Exact polarizability:   2.994   0.000   7.512   0.000   0.000   5.569
 Approx polarizability:   3.295   0.000   9.178   0.000   0.000   6.996
 Calling FoFJK, ICntrl=    100127 FMM=F ISym2X=1 I1Cent= 0 IOpClX= 0 NMat=1 NMatS=1 NMatT=0.
 Full mass-weighted force constant matrix:
 Low frequencies ---   -0.0023   -0.0019    0.0005   41.5191   60.0133   86.9790
 Low frequencies --- 1667.0706 3796.3697 3908.4907
 Diagonal vibrational polarizability:
        0.0000000       0.0351083       0.6812449
 Harmonic frequencies (cm**-1), IR intensities (KM/Mole), Raman scattering
 activities (A**4/AMU), depolarization ratios for plane and unpolarized
 incident light, reduced masses (AMU), force constants (mDyne/A),
 and normal coordinates:
                      1                      2                      3
                     A1                     A1                     B2
 Frequencies --   1667.0706              3796.3697              3908.4906
 Red. masses --      1.0826                 1.0452                 1.0810
 Frc consts  --      1.7727                 8.8756                 9.7294
 IR Inten    --     70.0403                 1.6181                19.9294
  Atom  AN      X      Y      Z        X      Y      Z        X      Y      Z
     1   8     0.00   0.00   0.07     0.00   0.00   0.05     0.00   0.07   0.00
     2   1     0.00  -0.43  -0.56     0.00   0.58  -0.40     0.00  -0.55   0.44
     3   1     0.00   0.43  -0.56     0.00  -0.58  -0.40     0.00  -0.55  -0.44
 
 Temperature   298.150 Kelvin.  Pressure   1.00000 Atm.
 Zero-point correction=                           0.021351 (Hartree/Particle)
 Thermal correction to Energy=                    0.024186
 Thermal correction to Enthalpy=                  0.025130
 Thermal correction to Gibbs Free Energy=         0.003693
 Sum of electronic and zero-point Energies=            -76.398386
 Sum of electronic and thermal Energies=               -76.395551
 Sum of electronic and thermal Enthalpies=             -76.394607
 Sum of electronic and thermal Free Energies=          -76.416044
 FormGI is forming the generalized inverse of G from B-inverse, IUseBI=4.

 GradGradGradGradGradGradGradGradGradGradGradGradGradGradGradGradGradGrad
 Internal  Forces:  Max     0.000309048 RMS     0.000253698
 Step number   1 out of a maximum of    2
 All quantities printed in internal units (Hartrees-Bohrs-Radians)
 Second derivative matrix not updated -- analytic derivatives used.
 ITU=  0
     Eigenvalues ---    0.16177   0.53190   0.54055
 Angle between quadratic step and forces=  24.69 degrees.
 Linear search not attempted -- first point.
 Iteration  1 RMS(Cart)=  0.00104196 RMS(Int)=  0.00000086
 Iteration  2 RMS(Cart)=  0.00000088 RMS(Int)=  0.00000000
 ClnCor:  largest displacement from symmetrization is 8.01D-16 for atom     3.
 Variable       Old X    -DE/DX   Delta X   Delta X   Delta X     New X
                                 (Linear)    (Quad)   (Total)
    R1        1.82473  -0.00022   0.00000  -0.00055  -0.00055   1.82419
    R2        1.82473  -0.00022   0.00000  -0.00055  -0.00055   1.82419
    A1        1.80854   0.00031   0.00000   0.00206   0.00206   1.81060
         Item               Value     Threshold  Converged?
 Maximum Force            0.000309     0.000450     YES
 RMS     Force            0.000254     0.000300     YES
 Maximum Displacement     0.001209     0.001800     YES
 RMS     Displacement     0.001042     0.001200     YES
 Optimization completed.
    -- Stationary point found.
                           ----------------------------
                           !   Optimized Parameters   !
                           ! (Angstroms and Degrees)  !
 --------------------------                            --------------------------
 ! Name  Definition              Value          Derivative Info.                !
 --------------------------------------------------------------------------------
 ! R1    R(1,2)                  0.9656         -DE/DX =   -0.0002              !
 ! R2    R(1,3)                  0.9656         -DE/DX =   -0.0002              !
 ! A1    A(2,1,3)              103.6217         -DE/DX =    0.0003              !
 --------------------------------------------------------------------------------
 GradGradGradGradGradGradGradGradGradGradGradGradGradGradGradGradGradGrad

 1|1| IMPERIAL COLLEGE-SKRS-G08-052|Freq|RB3LYP|6-31G(d,p)|H2O1|DP1820|
 20-Jul-2021|0||#T Geom=AllCheck Guess=TCheck SCRF=Check GenChk RB3LYP/
 6-31G(d,p) Freq||H2O opt+freq 298.15||0,1|O,0.,0.,-0.1240456803|H,0.,-
 0.7589418166,0.4729502101|H,0.,0.7589418166,0.4729502101||Version=EM64
 W-G09RevD.01|State=1-A1|HF=-76.419737|RMSD=3.024e-010|RMSF=2.226e-004|
 ZeroPoint=0.0213508|Thermal=0.0241858|Dipole=0.,0.,0.8044656|DipoleDer
 iv=-0.7130747,0.,0.,0.,-0.4065601,0.,0.,0.,-0.3229099,0.3565373,0.,0.,
 0.,0.2032801,0.087677,0.,0.1205551,0.1614549,0.3565373,0.,0.,0.,0.2032
 801,-0.087677,0.,-0.1205551,0.1614549|Polar=2.9935541,0.,7.51194,0.,0.
 ,5.5687328|PG=C02V [C2(O1),SGV(H2)]|NImag=0||0.00051250,0.,0.66813003,
 0.,0.,0.45718781,-0.00025625,0.,0.,0.00016100,0.,-0.33406502,0.1982445
 7,0.,0.36617178,0.,0.26258137,-0.22859390,0.,-0.23041297,0.21760028,-0
 .00025625,0.,0.,0.00009525,0.,0.,0.00016100,0.,-0.33406502,-0.19824457
 ,0.,-0.03210676,-0.03216840,0.,0.36617178,0.,-0.26258137,-0.22859390,0
 .,0.03216840,0.01099363,0.,0.23041297,0.21760028||0.,0.,-0.00053936,0.
 ,-0.00006890,0.00026968,0.,0.00006890,0.00026968|||@


 THE LENGTH OF A MEETING IS PROPORTIONAL TO THE
 SQUARE OF THE PARTICIPANTS.
 Job cpu time:       0 days  0 hours  0 minutes 16.0 seconds.
 File lengths (MBytes):  RWF=      5 Int=      0 D2E=      0 Chk=      1 Scr=      1
 Normal termination of Gaussian 09 at Tue Jul 20 13:17:01 2021.
