 Default is to use a total of   8 processors:
                                8 via shared-memory
                                1 via Linda
 Entering Link 1 = C:\G09W\l1.exe PID=      6456.
  
 Copyright (c) 1988,1990,1992,1993,1995,1998,2003,2009,2013,
            Gaussian, Inc.  All Rights Reserved.
  
 This is part of the Gaussian(R) 09 program.  It is based on
 the Gaussian(R) 03 system (copyright 2003, Gaussian, Inc.),
 the Gaussian(R) 98 system (copyright 1998, Gaussian, Inc.),
 the Gaussian(R) 94 system (copyright 1995, Gaussian, Inc.),
 the Gaussian 92(TM) system (copyright 1992, Gaussian, Inc.),
 the Gaussian 90(TM) system (copyright 1990, Gaussian, Inc.),
 the Gaussian 88(TM) system (copyright 1988, Gaussian, Inc.),
 the Gaussian 86(TM) system (copyright 1986, Carnegie Mellon
 University), and the Gaussian 82(TM) system (copyright 1983,
 Carnegie Mellon University). Gaussian is a federally registered
 trademark of Gaussian, Inc.
  
 This software contains proprietary and confidential information,
 including trade secrets, belonging to Gaussian, Inc.
  
 This software is provided under written license and may be
 used, copied, transmitted, or stored only in accord with that
 written license.
  
 The following legend is applicable only to US Government
 contracts under FAR:
  
                    RESTRICTED RIGHTS LEGEND
  
 Use, reproduction and disclosure by the US Government is
 subject to restrictions as set forth in subparagraphs (a)
 and (c) of the Commercial Computer Software - Restricted
 Rights clause in FAR 52.227-19.
  
 Gaussian, Inc.
 340 Quinnipiac St., Bldg. 40, Wallingford CT 06492
  
  
 ---------------------------------------------------------------
 Warning -- This program may not be used in any manner that
 competes with the business of Gaussian, Inc. or will provide
 assistance to any competitor of Gaussian, Inc.  The licensee
 of this program is prohibited from giving any competitor of
 Gaussian, Inc. access to this program.  By using this program,
 the user acknowledges that Gaussian, Inc. is engaged in the
 business of creating and licensing software in the field of
 computational chemistry and represents and warrants to the
 licensee that it is not a competitor of Gaussian, Inc. and that
 it will not use this program in any manner prohibited above.
 ---------------------------------------------------------------
  

 Cite this work as:
 Gaussian 09, Revision D.01,
 M. J. Frisch, G. W. Trucks, H. B. Schlegel, G. E. Scuseria, 
 M. A. Robb, J. R. Cheeseman, G. Scalmani, V. Barone, B. Mennucci, 
 G. A. Petersson, H. Nakatsuji, M. Caricato, X. Li, H. P. Hratchian, 
 A. F. Izmaylov, J. Bloino, G. Zheng, J. L. Sonnenberg, M. Hada, 
 M. Ehara, K. Toyota, R. Fukuda, J. Hasegawa, M. Ishida, T. Nakajima, 
 Y. Honda, O. Kitao, H. Nakai, T. Vreven, J. A. Montgomery, Jr., 
 J. E. Peralta, F. Ogliaro, M. Bearpark, J. J. Heyd, E. Brothers, 
 K. N. Kudin, V. N. Staroverov, T. Keith, R. Kobayashi, J. Normand, 
 K. Raghavachari, A. Rendell, J. C. Burant, S. S. Iyengar, J. Tomasi, 
 M. Cossi, N. Rega, J. M. Millam, M. Klene, J. E. Knox, J. B. Cross, 
 V. Bakken, C. Adamo, J. Jaramillo, R. Gomperts, R. E. Stratmann, 
 O. Yazyev, A. J. Austin, R. Cammi, C. Pomelli, J. W. Ochterski, 
 R. L. Martin, K. Morokuma, V. G. Zakrzewski, G. A. Voth, 
 P. Salvador, J. J. Dannenberg, S. Dapprich, A. D. Daniels, 
 O. Farkas, J. B. Foresman, J. V. Ortiz, J. Cioslowski, 
 and D. J. Fox, Gaussian, Inc., Wallingford CT, 2013.
 
 ******************************************
 Gaussian 09:  EM64W-G09RevD.01 13-Apr-2013
                24-Aug-2021 
 ******************************************
 %chk=\\icnas1.cc.ic.ac.uk\dp1820\Desktop\log files\alkanes\C_4_12.chk
 Default route:  MaxDisk=10GB
 ---------------------------------------------------------------------
 # opt freq b3lyp/6-31g(d,p) geom=connectivity integral=grid=ultrafine
 ---------------------------------------------------------------------
 1/14=-1,18=20,19=15,26=4,38=1,57=2/1,3;
 2/9=110,12=2,17=6,18=5,40=1/2;
 3/5=1,6=6,7=101,11=2,16=1,25=1,30=1,71=1,74=-5,75=-5/1,2,3;
 4//1;
 5/5=2,38=5/2;
 6/7=2,8=2,9=2,10=2,28=1/1;
 7//1,2,3,16;
 1/14=-1,18=20,19=15,26=4/3(2);
 2/9=110/2;
 99//99;
 2/9=110/2;
 3/5=1,6=6,7=101,11=2,16=1,25=1,30=1,71=1,74=-5,75=-5/1,2,3;
 4/5=5,16=3,69=1/1;
 5/5=2,38=5/2;
 7//1,2,3,16;
 1/14=-1,18=20,19=15,26=4/3(-5);
 2/9=110/2;
 6/7=2,8=2,9=2,10=2,19=2,28=1/1;
 99/9=1/99;
 ------
 C_4_13
 ------
 Symbolic Z-matrix:
 Charge =  0 Multiplicity = 1
 C(Iso=13)            -1.46816  -0.59166  -0.13718 
 H                    -0.93533  -1.4654    0.17517 
 H                    -1.55743  -0.59049  -1.20344 
 H                    -2.44369  -0.59263   0.30241 
 C                    -0.70252   0.66561   0.31523 
 H                    -1.23436   1.53936   0.00119 
 H                    -0.61494   0.66542   1.38164 
 C                     0.70252   0.66561  -0.31523 
 H                     0.61494   0.66542  -1.38164 
 H                     1.23436   1.53936  -0.00119 
 C                     1.46816  -0.59166   0.13718 
 H                     1.21494  -1.41235  -0.50097 
 H                     2.52074  -0.40774   0.08103 
 H                     1.20077  -0.82843   1.14581 
 

 GradGradGradGradGradGradGradGradGradGradGradGradGradGradGradGradGradGrad
 Berny optimization.
 Initialization pass.
                           ----------------------------
                           !    Initial Parameters    !
                           ! (Angstroms and Degrees)  !
 --------------------------                            --------------------------
 ! Name  Definition              Value          Derivative Info.                !
 --------------------------------------------------------------------------------
 ! R1    R(1,2)                  1.07           estimate D2E/DX2                !
 ! R2    R(1,3)                  1.07           estimate D2E/DX2                !
 ! R3    R(1,4)                  1.07           estimate D2E/DX2                !
 ! R4    R(1,5)                  1.54           estimate D2E/DX2                !
 ! R5    R(5,6)                  1.07           estimate D2E/DX2                !
 ! R6    R(5,7)                  1.07           estimate D2E/DX2                !
 ! R7    R(5,8)                  1.54           estimate D2E/DX2                !
 ! R8    R(8,9)                  1.07           estimate D2E/DX2                !
 ! R9    R(8,10)                 1.07           estimate D2E/DX2                !
 ! R10   R(8,11)                 1.54           estimate D2E/DX2                !
 ! R11   R(11,12)                1.07           estimate D2E/DX2                !
 ! R12   R(11,13)                1.07           estimate D2E/DX2                !
 ! R13   R(11,14)                1.07           estimate D2E/DX2                !
 ! A1    A(2,1,3)              109.4712         estimate D2E/DX2                !
 ! A2    A(2,1,4)              109.4712         estimate D2E/DX2                !
 ! A3    A(2,1,5)              109.4712         estimate D2E/DX2                !
 ! A4    A(3,1,4)              109.4712         estimate D2E/DX2                !
 ! A5    A(3,1,5)              109.4712         estimate D2E/DX2                !
 ! A6    A(4,1,5)              109.4712         estimate D2E/DX2                !
 ! A7    A(1,5,6)              109.4712         estimate D2E/DX2                !
 ! A8    A(1,5,7)              109.4712         estimate D2E/DX2                !
 ! A9    A(1,5,8)              109.4712         estimate D2E/DX2                !
 ! A10   A(6,5,7)              109.4713         estimate D2E/DX2                !
 ! A11   A(6,5,8)              109.4712         estimate D2E/DX2                !
 ! A12   A(7,5,8)              109.4712         estimate D2E/DX2                !
 ! A13   A(5,8,9)              109.4712         estimate D2E/DX2                !
 ! A14   A(5,8,10)             109.4712         estimate D2E/DX2                !
 ! A15   A(5,8,11)             109.4712         estimate D2E/DX2                !
 ! A16   A(9,8,10)             109.4713         estimate D2E/DX2                !
 ! A17   A(9,8,11)             109.4712         estimate D2E/DX2                !
 ! A18   A(10,8,11)            109.4712         estimate D2E/DX2                !
 ! A19   A(8,11,12)            109.4712         estimate D2E/DX2                !
 ! A20   A(8,11,13)            109.4712         estimate D2E/DX2                !
 ! A21   A(8,11,14)            109.4712         estimate D2E/DX2                !
 ! A22   A(12,11,13)           109.4713         estimate D2E/DX2                !
 ! A23   A(12,11,14)           109.4712         estimate D2E/DX2                !
 ! A24   A(13,11,14)           109.4712         estimate D2E/DX2                !
 ! D1    D(2,1,5,6)            179.8889         estimate D2E/DX2                !
 ! D2    D(2,1,5,7)            -60.1111         estimate D2E/DX2                !
 ! D3    D(2,1,5,8)             59.8889         estimate D2E/DX2                !
 ! D4    D(3,1,5,6)             59.8889         estimate D2E/DX2                !
 ! D5    D(3,1,5,7)            179.8889         estimate D2E/DX2                !
 ! D6    D(3,1,5,8)            -60.1111         estimate D2E/DX2                !
 ! D7    D(4,1,5,6)            -60.1111         estimate D2E/DX2                !
 ! D8    D(4,1,5,7)             59.8889         estimate D2E/DX2                !
 ! D9    D(4,1,5,8)            179.8889         estimate D2E/DX2                !
 ! D10   D(1,5,8,9)             59.9786         estimate D2E/DX2                !
 ! D11   D(1,5,8,10)           179.9786         estimate D2E/DX2                !
 ! D12   D(1,5,8,11)           -60.0214         estimate D2E/DX2                !
 ! D13   D(6,5,8,9)            -60.0214         estimate D2E/DX2                !
 ! D14   D(6,5,8,10)            59.9786         estimate D2E/DX2                !
 ! D15   D(6,5,8,11)           179.9786         estimate D2E/DX2                !
 ! D16   D(7,5,8,9)            179.9786         estimate D2E/DX2                !
 ! D17   D(7,5,8,10)           -60.0214         estimate D2E/DX2                !
 ! D18   D(7,5,8,11)            59.9786         estimate D2E/DX2                !
 ! D19   D(5,8,11,12)           84.6511         estimate D2E/DX2                !
 ! D20   D(5,8,11,13)         -155.3489         estimate D2E/DX2                !
 ! D21   D(5,8,11,14)          -35.3489         estimate D2E/DX2                !
 ! D22   D(9,8,11,12)          -35.3489         estimate D2E/DX2                !
 ! D23   D(9,8,11,13)           84.6512         estimate D2E/DX2                !
 ! D24   D(9,8,11,14)         -155.3488         estimate D2E/DX2                !
 ! D25   D(10,8,11,12)        -155.3489         estimate D2E/DX2                !
 ! D26   D(10,8,11,13)         -35.3489         estimate D2E/DX2                !
 ! D27   D(10,8,11,14)          84.6511         estimate D2E/DX2                !
 --------------------------------------------------------------------------------
 Trust Radius=3.00D-01 FncErr=1.00D-07 GrdErr=1.00D-06
 Number of steps in this run=     74 maximum allowed number of steps=    100.
 GradGradGradGradGradGradGradGradGradGradGradGradGradGradGradGradGradGrad

                          Input orientation:                          
 ---------------------------------------------------------------------
 Center     Atomic      Atomic             Coordinates (Angstroms)
 Number     Number       Type             X           Y           Z
 ---------------------------------------------------------------------
      1          6           0       -1.468159   -0.591656   -0.137176
      2          1           0       -0.935328   -1.465400    0.175174
      3          1           0       -1.557430   -0.590491   -1.203444
      4          1           0       -2.443691   -0.592635    0.302412
      5          6           0       -0.702518    0.665613    0.315227
      6          1           0       -1.234356    1.539358    0.001193
      7          1           0       -0.614936    0.665425    1.381637
      8          6           0        0.702518    0.665613   -0.315227
      9          1           0        0.614936    0.665425   -1.381637
     10          1           0        1.234356    1.539359   -0.001193
     11          6           0        1.468159   -0.591656    0.137176
     12          1           0        1.214944   -1.412355   -0.500975
     13          1           0        2.520738   -0.407743    0.081025
     14          1           0        1.200766   -0.828428    1.145808
 ---------------------------------------------------------------------
                    Distance matrix (angstroms):
                    1          2          3          4          5
     1  C    0.000000
     2  H    1.070000   0.000000
     3  H    1.070000   1.747302   0.000000
     4  H    1.070000   1.747303   1.747303   0.000000
     5  C    1.540000   2.148263   2.148263   2.148263   0.000000
     6  H    2.148263   3.024609   2.468154   2.469538   1.070000
     7  H    2.148263   2.469538   3.024610   2.468154   1.070000
     8  C    2.514810   2.732078   2.733878   3.444313   1.540000
     9  H    2.732804   3.060619   2.515601   3.711324   2.148263
    10  H    3.444314   3.710419   3.711567   4.262111   2.148263
    11  C    2.949107   2.557659   3.309298   3.915338   2.514810
    12  H    2.829300   2.254697   2.975732   3.834446   2.942923
    13  H    3.999092   3.615508   4.279569   4.972801   3.405338
    14  H    2.970735   2.431206   3.630874   3.748197   2.558225
                    6          7          8          9         10
     6  H    0.000000
     7  H    1.747303   0.000000
     8  C    2.148263   2.148263   0.000000
     9  H    2.468979   3.024610   1.070000   0.000000
    10  H    2.468713   2.468979   1.070000   1.747303   0.000000
    11  C    3.444314   2.732804   1.540000   2.148263   2.148263
    12  H    3.868314   3.348112   2.148263   2.335111   2.993789
    13  H    4.230639   3.560299   2.148263   2.631188   2.335111
    14  H    3.584184   2.363045   2.148263   2.993789   2.631188
                   11         12         13         14
    11  C    0.000000
    12  H    1.070000   0.000000
    13  H    1.070000   1.747303   0.000000
    14  H    1.070000   1.747303   1.747303   0.000000
 Stoichiometry    C4H10
 Framework group  C1[X(C4H10)]
 Deg. of freedom    36
 Full point group                 C1      NOp   1
 Largest Abelian subgroup         C1      NOp   1
 Largest concise Abelian subgroup C1      NOp   1
                         Standard orientation:                         
 ---------------------------------------------------------------------
 Center     Atomic      Atomic             Coordinates (Angstroms)
 Number     Number       Type             X           Y           Z
 ---------------------------------------------------------------------
      1          6           0        1.468159   -0.591656    0.137176
      2          1           0        0.935328   -1.465400   -0.175174
      3          1           0        1.557430   -0.590491    1.203444
      4          1           0        2.443691   -0.592635   -0.302412
      5          6           0        0.702518    0.665613   -0.315227
      6          1           0        1.234356    1.539358   -0.001193
      7          1           0        0.614936    0.665425   -1.381637
      8          6           0       -0.702518    0.665613    0.315227
      9          1           0       -0.614936    0.665425    1.381637
     10          1           0       -1.234356    1.539359    0.001193
     11          6           0       -1.468159   -0.591656   -0.137176
     12          1           0       -1.214944   -1.412355    0.500975
     13          1           0       -2.520738   -0.407743   -0.081025
     14          1           0       -1.200766   -0.828428   -1.145808
 ---------------------------------------------------------------------
 Rotational constants (GHZ):     12.4334112      5.1513400      4.2462549
 Standard basis: 6-31G(d,p) (6D, 7F)
 There are   110 symmetry adapted cartesian basis functions of A   symmetry.
 There are   110 symmetry adapted basis functions of A   symmetry.
   110 basis functions,   182 primitive gaussians,   110 cartesian basis functions
    17 alpha electrons       17 beta electrons
       nuclear repulsion energy       134.7121373800 Hartrees.
 NAtoms=   14 NActive=   14 NUniq=   14 SFac= 1.00D+00 NAtFMM=   60 NAOKFM=F Big=F
 Integral buffers will be    131072 words long.
 Raffenetti 2 integral format.
 Two-electron integral symmetry is turned on.
 One-electron integrals computed using PRISM.
 NBasis=   110 RedAO= T EigKep=  4.96D-03  NBF=   110
 NBsUse=   110 1.00D-06 EigRej= -1.00D+00 NBFU=   110
 ExpMin= 1.61D-01 ExpMax= 3.05D+03 ExpMxC= 4.57D+02 IAcc=3 IRadAn=         5 AccDes= 0.00D+00
 Harris functional with IExCor=  402 and IRadAn=       5 diagonalized for initial guess.
 HarFok:  IExCor=  402 AccDes= 0.00D+00 IRadAn=         5 IDoV= 1 UseB2=F ITyADJ=14
 ICtDFT=  3500011 ScaDFX=  1.000000  1.000000  1.000000  1.000000
 FoFCou: FMM=F IPFlag=           0 FMFlag=      100000 FMFlg1=           0
         NFxFlg=           0 DoJE=T BraDBF=F KetDBF=T FulRan=T
         wScrn=  0.000000 ICntrl=     500 IOpCl=  0 I1Cent=   200000004 NGrid=           0
         NMat0=    1 NMatS0=      1 NMatT0=    0 NMatD0=    1 NMtDS0=    0 NMtDT0=    0
 Petite list used in FoFCou.
 Keep R1 ints in memory in canonical form, NReq=19629401.
 Requested convergence on RMS density matrix=1.00D-08 within 128 cycles.
 Requested convergence on MAX density matrix=1.00D-06.
 Requested convergence on             energy=1.00D-06.
 No special actions if energy rises.
 Integral accuracy reduced to 1.0D-05 until final iterations.
 Initial convergence to 1.0D-05 achieved.  Increase integral accuracy.
 SCF Done:  E(RB3LYP) =  -158.461634550     A.U. after   11 cycles
            NFock= 11  Conv=0.41D-08     -V/T= 2.0081

 **********************************************************************

            Population analysis using the SCF density.

 **********************************************************************

 Orbital symmetries:
       Occupied  (A) (A) (A) (A) (A) (A) (A) (A) (A) (A) (A) (A)
                 (A) (A) (A) (A) (A)
       Virtual   (A) (A) (A) (A) (A) (A) (A) (A) (A) (A) (A) (A)
                 (A) (A) (A) (A) (A) (A) (A) (A) (A) (A) (A) (A)
                 (A) (A) (A) (A) (A) (A) (A) (A) (A) (A) (A) (A)
                 (A) (A) (A) (A) (A) (A) (A) (A) (A) (A) (A) (A)
                 (A) (A) (A) (A) (A) (A) (A) (A) (A) (A) (A) (A)
                 (A) (A) (A) (A) (A) (A) (A) (A) (A) (A) (A) (A)
                 (A) (A) (A) (A) (A) (A) (A) (A) (A) (A) (A) (A)
                 (A) (A) (A) (A) (A) (A) (A) (A) (A)
 The electronic state is 1-A.
 Alpha  occ. eigenvalues --  -10.16765 -10.16727 -10.16031 -10.15972  -0.79322
 Alpha  occ. eigenvalues --   -0.71424  -0.63910  -0.56687  -0.45991  -0.45522
 Alpha  occ. eigenvalues --   -0.41404  -0.37873  -0.37793  -0.35814  -0.32773
 Alpha  occ. eigenvalues --   -0.31661  -0.31228
 Alpha virt. eigenvalues --    0.09601   0.14149   0.14403   0.15645   0.15955
 Alpha virt. eigenvalues --    0.17482   0.19426   0.19716   0.21557   0.22526
 Alpha virt. eigenvalues --    0.24285   0.24639   0.28202   0.50920   0.52737
 Alpha virt. eigenvalues --    0.52845   0.54194   0.55054   0.61315   0.63797
 Alpha virt. eigenvalues --    0.66134   0.68150   0.71977   0.82112   0.83096
 Alpha virt. eigenvalues --    0.87170   0.88243   0.88276   0.90212   0.91847
 Alpha virt. eigenvalues --    0.93993   0.95482   0.96625   0.97543   1.01577
 Alpha virt. eigenvalues --    1.03864   1.27614   1.28866   1.33843   1.48599
 Alpha virt. eigenvalues --    1.53305   1.55774   1.60671   1.66533   1.73101
 Alpha virt. eigenvalues --    1.80860   1.84562   1.87354   1.93785   1.96506
 Alpha virt. eigenvalues --    2.05320   2.06038   2.10680   2.11961   2.13232
 Alpha virt. eigenvalues --    2.13838   2.16014   2.19960   2.26389   2.28595
 Alpha virt. eigenvalues --    2.29638   2.34586   2.36197   2.41381   2.45995
 Alpha virt. eigenvalues --    2.50571   2.55195   2.64731   2.67662   2.70879
 Alpha virt. eigenvalues --    2.72111   2.78524   2.79626   2.85371   2.90831
 Alpha virt. eigenvalues --    2.96347   2.96868   2.97785   2.99903   3.25474
 Alpha virt. eigenvalues --    3.29966   3.35887   3.36226   3.43203   3.46282
 Alpha virt. eigenvalues --    3.51352   3.52094   3.58180   3.63023   4.31230
 Alpha virt. eigenvalues --    4.46168   4.58210   4.69609
          Condensed to atoms (all electrons):
               1          2          3          4          5          6
     1  C    4.912988   0.394383   0.391801   0.385124   0.379595  -0.038668
     2  H    0.394383   0.598518  -0.033259  -0.030603  -0.037727   0.005883
     3  H    0.391801  -0.033259   0.606578  -0.031728  -0.038347  -0.005079
     4  H    0.385124  -0.030603  -0.031728   0.610744  -0.031217  -0.002966
     5  C    0.379595  -0.037727  -0.038347  -0.031217   4.869382   0.386373
     6  H   -0.038668   0.005883  -0.005079  -0.002966   0.386373   0.639544
     7  H   -0.040771  -0.005156   0.005926  -0.003346   0.390557  -0.037296
     8  C   -0.054019  -0.009238  -0.004267   0.005408   0.390532  -0.036634
     9  H   -0.007596  -0.000308   0.006010   0.000005  -0.038824  -0.003919
    10  H    0.005530   0.000119   0.000048  -0.000223  -0.035126  -0.002906
    11  C   -0.007602   0.006727  -0.001635   0.000098  -0.049295   0.005926
    12  H    0.001321  -0.000074   0.000734  -0.000045  -0.002927  -0.000177
    13  H    0.000478  -0.000141  -0.000032  -0.000008   0.004733  -0.000218
    14  H   -0.003158   0.001832   0.000291  -0.000080  -0.007755   0.000229
               7          8          9         10         11         12
     1  C   -0.040771  -0.054019  -0.007596   0.005530  -0.007602   0.001321
     2  H   -0.005156  -0.009238  -0.000308   0.000119   0.006727  -0.000074
     3  H    0.005926  -0.004267   0.006010   0.000048  -0.001635   0.000734
     4  H   -0.003346   0.005408   0.000005  -0.000223   0.000098  -0.000045
     5  C    0.390557   0.390532  -0.038824  -0.035126  -0.049295  -0.002927
     6  H   -0.037296  -0.036634  -0.003919  -0.002906   0.005926  -0.000177
     7  H    0.633438  -0.038020   0.006285  -0.003766  -0.009451  -0.000050
     8  C   -0.038020   4.872822   0.391423   0.389664   0.370749  -0.033018
     9  H    0.006285   0.391423   0.633641  -0.037087  -0.041532  -0.009393
    10  H   -0.003766   0.389664  -0.037087   0.636054  -0.040396   0.005384
    11  C   -0.009451   0.370749  -0.041532  -0.040396   4.917750   0.393907
    12  H   -0.000050  -0.033018  -0.009393   0.005384   0.393907   0.598187
    13  H    0.000115  -0.030890   0.000883  -0.007774   0.384360  -0.030417
    14  H    0.007121  -0.042416   0.005861  -0.000445   0.393587  -0.033824
              13         14
     1  C    0.000478  -0.003158
     2  H   -0.000141   0.001832
     3  H   -0.000032   0.000291
     4  H   -0.000008  -0.000080
     5  C    0.004733  -0.007755
     6  H   -0.000218   0.000229
     7  H    0.000115   0.007121
     8  C   -0.030890  -0.042416
     9  H    0.000883   0.005861
    10  H   -0.007774  -0.000445
    11  C    0.384360   0.393587
    12  H   -0.030417  -0.033824
    13  H    0.611452  -0.031005
    14  H   -0.031005   0.604603
 Mulliken charges:
               1
     1  C   -0.319407
     2  H    0.109044
     3  H    0.102959
     4  H    0.098835
     5  C   -0.179954
     6  H    0.089907
     7  H    0.094415
     8  C   -0.172096
     9  H    0.094551
    10  H    0.090923
    11  C   -0.323194
    12  H    0.110391
    13  H    0.098463
    14  H    0.105160
 Sum of Mulliken charges =   0.00000
 Mulliken charges with hydrogens summed into heavy atoms:
               1
     1  C   -0.008568
     5  C    0.004368
     8  C    0.013379
    11  C   -0.009179
 Electronic spatial extent (au):  <R**2>=            360.2822
 Charge=              0.0000 electrons
 Dipole moment (field-independent basis, Debye):
    X=             -0.0279    Y=              0.0527    Z=              0.0086  Tot=              0.0603
 Quadrupole moment (field-independent basis, Debye-Ang):
   XX=            -28.3405   YY=            -28.3184   ZZ=            -27.5887
   XY=             -0.0092   XZ=             -0.0051   YZ=             -0.0238
 Traceless Quadrupole moment (field-independent basis, Debye-Ang):
   XX=             -0.2580   YY=             -0.2359   ZZ=              0.4939
   XY=             -0.0092   XZ=             -0.0051   YZ=             -0.0238
 Octapole moment (field-independent basis, Debye-Ang**2):
  XXX=             -0.3397  YYY=              0.4652  ZZZ=              0.2074  XYY=             -0.1541
  XXY=              1.4658  XXZ=             -0.2629  XZZ=              0.3072  YZZ=             -0.2336
  YYZ=              0.0931  XYZ=              0.5958
 Hexadecapole moment (field-independent basis, Debye-Ang**3):
 XXXX=           -291.0427 YYYY=           -129.6087 ZZZZ=            -64.7123 XXXY=             -1.0279
 XXXZ=             -1.8800 YYYX=              0.3271 YYYZ=             -0.2957 ZZZX=              0.5789
 ZZZY=             -0.0056 XXYY=            -72.9736 XXZZ=            -61.2901 YYZZ=            -33.3925
 XXYZ=              0.0309 YYXZ=              0.1519 ZZXY=              0.1284
 N-N= 1.347121373800D+02 E-N=-6.351329812416D+02  KE= 1.571936054177D+02
 Calling FoFJK, ICntrl=      2127 FMM=F ISym2X=0 I1Cent= 0 IOpClX= 0 NMat=1 NMatS=1 NMatT=0.
 ***** Axes restored to original set *****
 -------------------------------------------------------------------
 Center     Atomic                   Forces (Hartrees/Bohr)
 Number     Number              X              Y              Z
 -------------------------------------------------------------------
      1        6           0.006621580    0.021854456    0.011854685
      2        1           0.003467347   -0.015217540    0.003274052
      3        1          -0.003104345   -0.002778765   -0.017188179
      4        1          -0.016583695   -0.004010209    0.004773379
      5        6           0.008737079   -0.018510829   -0.025254564
      6        1          -0.010167761    0.015598891   -0.001693918
      7        1           0.000757356    0.003079499    0.018161739
      8        6          -0.010210038   -0.016633652    0.023884590
      9        1           0.000128506    0.004058475   -0.018028797
     10        1           0.008752755    0.015806412    0.002178568
     11        6          -0.004778581    0.020512972   -0.011733608
     12        1          -0.000470360   -0.015380627   -0.006303435
     13        1           0.017402253   -0.002217770   -0.000401600
     14        1          -0.000552097   -0.006161313    0.016477089
 -------------------------------------------------------------------
 Cartesian Forces:  Max     0.025254564 RMS     0.012333527

 GradGradGradGradGradGradGradGradGradGradGradGradGradGradGradGradGradGrad
 Berny optimization.
 FormGI is forming the generalized inverse of G from B-inverse, IUseBI=4.
 Internal  Forces:  Max     0.018288453 RMS     0.008180872
 Search for a local minimum.
 Step number   1 out of a maximum of   74
 All quantities printed in internal units (Hartrees-Bohrs-Radians)
 Mixed Optimization -- RFO/linear search
 Second derivative matrix not updated -- first step.
 ITU=  0
     Eigenvalues ---    0.00237   0.00237   0.00237   0.03840   0.03840
     Eigenvalues ---    0.04896   0.04896   0.05720   0.05720   0.05720
     Eigenvalues ---    0.05720   0.07655   0.07655   0.11701   0.11701
     Eigenvalues ---    0.16000   0.16000   0.16000   0.16000   0.16000
     Eigenvalues ---    0.16000   0.21948   0.21948   0.28519   0.28519
     Eigenvalues ---    0.28519   0.37230   0.37230   0.37230   0.37230
     Eigenvalues ---    0.37230   0.37230   0.37230   0.37230   0.37230
     Eigenvalues ---    0.37230
 RFO step:  Lambda=-1.52649282D-02 EMin= 2.36824061D-03
 Linear search not attempted -- first point.
 Iteration  1 RMS(Cart)=  0.11298338 RMS(Int)=  0.00308283
 Iteration  2 RMS(Cart)=  0.00371103 RMS(Int)=  0.00038555
 Iteration  3 RMS(Cart)=  0.00001197 RMS(Int)=  0.00038548
 Iteration  4 RMS(Cart)=  0.00000000 RMS(Int)=  0.00038548
 Variable       Old X    -DE/DX   Delta X   Delta X   Delta X     New X
                                 (Linear)    (Quad)   (Total)
    R1        2.02201   0.01511   0.00000   0.03899   0.03899   2.06099
    R2        2.02201   0.01739   0.00000   0.04486   0.04486   2.06687
    R3        2.02201   0.01708   0.00000   0.04408   0.04408   2.06608
    R4        2.91018   0.00411   0.00000   0.01366   0.01366   2.92384
    R5        2.02201   0.01829   0.00000   0.04719   0.04719   2.06919
    R6        2.02201   0.01816   0.00000   0.04686   0.04686   2.06887
    R7        2.91018   0.00688   0.00000   0.02291   0.02291   2.93309
    R8        2.02201   0.01796   0.00000   0.04633   0.04633   2.06834
    R9        2.02201   0.01790   0.00000   0.04618   0.04618   2.06819
   R10        2.91018   0.00784   0.00000   0.02609   0.02609   2.93627
   R11        2.02201   0.01567   0.00000   0.04042   0.04042   2.06243
   R12        2.02201   0.01676   0.00000   0.04324   0.04324   2.06525
   R13        2.02201   0.01703   0.00000   0.04395   0.04395   2.06596
    A1        1.91063  -0.00385   0.00000  -0.02041  -0.02071   1.88992
    A2        1.91063  -0.00517   0.00000  -0.02919  -0.02965   1.88098
    A3        1.91063   0.00557   0.00000   0.03273   0.03233   1.94297
    A4        1.91063  -0.00405   0.00000  -0.02500  -0.02516   1.88548
    A5        1.91063   0.00263   0.00000   0.01482   0.01458   1.92521
    A6        1.91063   0.00488   0.00000   0.02706   0.02673   1.93736
    A7        1.91063  -0.00573   0.00000  -0.02510  -0.02541   1.88522
    A8        1.91063  -0.00325   0.00000   0.00050  -0.00031   1.91032
    A9        1.91063   0.01715   0.00000   0.08524   0.08461   1.99524
   A10        1.91063   0.00087   0.00000  -0.03552  -0.03609   1.87455
   A11        1.91063  -0.00389   0.00000  -0.01129  -0.01128   1.89935
   A12        1.91063  -0.00514   0.00000  -0.01384  -0.01509   1.89554
   A13        1.91063  -0.00570   0.00000  -0.01934  -0.02066   1.88997
   A14        1.91063  -0.00438   0.00000  -0.01315  -0.01359   1.89704
   A15        1.91063   0.01808   0.00000   0.09021   0.08950   2.00013
   A16        1.91063   0.00081   0.00000  -0.03896  -0.03963   1.87100
   A17        1.91063  -0.00340   0.00000   0.00010  -0.00045   1.91018
   A18        1.91063  -0.00541   0.00000  -0.01886  -0.01925   1.89139
   A19        1.91063   0.00615   0.00000   0.03611   0.03560   1.94624
   A20        1.91063   0.00501   0.00000   0.02729   0.02692   1.93756
   A21        1.91063   0.00377   0.00000   0.02178   0.02140   1.93203
   A22        1.91063  -0.00566   0.00000  -0.03285  -0.03333   1.87731
   A23        1.91063  -0.00456   0.00000  -0.02338  -0.02387   1.88677
   A24        1.91063  -0.00471   0.00000  -0.02895  -0.02918   1.88146
    D1        3.13965   0.00255   0.00000   0.04234   0.04213  -3.10140
    D2       -1.04914  -0.00189   0.00000  -0.01622  -0.01646  -1.06560
    D3        1.04526   0.00033   0.00000   0.01934   0.01967   1.06493
    D4        1.04526   0.00225   0.00000   0.03822   0.03801   1.08327
    D5        3.13965  -0.00219   0.00000  -0.02034  -0.02057   3.11908
    D6       -1.04914   0.00003   0.00000   0.01522   0.01555  -1.03358
    D7       -1.04914   0.00261   0.00000   0.04320   0.04311  -1.00602
    D8        1.04526  -0.00183   0.00000  -0.01536  -0.01548   1.02978
    D9        3.13965   0.00039   0.00000   0.02020   0.02065  -3.12288
   D10        1.04682   0.00158   0.00000  -0.00237  -0.00249   1.04433
   D11        3.14122  -0.00359   0.00000  -0.06998  -0.06983   3.07139
   D12       -1.04757  -0.00183   0.00000  -0.04589  -0.04567  -1.09324
   D13       -1.04757   0.00049   0.00000  -0.01691  -0.01714  -1.06471
   D14        1.04682  -0.00469   0.00000  -0.08453  -0.08447   0.96235
   D15        3.14122  -0.00292   0.00000  -0.06043  -0.06031   3.08091
   D16        3.14122   0.00496   0.00000   0.04197   0.04170  -3.10027
   D17       -1.04757  -0.00022   0.00000  -0.02564  -0.02563  -1.07320
   D18        1.04682   0.00154   0.00000  -0.00155  -0.00147   1.04535
   D19        1.47744  -0.00057   0.00000  -0.03204  -0.03173   1.44571
   D20       -2.71135  -0.00067   0.00000  -0.03345  -0.03308  -2.74443
   D21       -0.61695  -0.00106   0.00000  -0.03886  -0.03863  -0.65558
   D22       -0.61695  -0.00258   0.00000  -0.06366  -0.06393  -0.68088
   D23        1.47744  -0.00268   0.00000  -0.06507  -0.06527   1.41217
   D24       -2.71135  -0.00307   0.00000  -0.07048  -0.07082  -2.78216
   D25       -2.71135   0.00183   0.00000  -0.00445  -0.00448  -2.71583
   D26       -0.61695   0.00173   0.00000  -0.00586  -0.00583  -0.62278
   D27        1.47744   0.00133   0.00000  -0.01127  -0.01137   1.46607
         Item               Value     Threshold  Converged?
 Maximum Force            0.018288     0.000450     NO 
 RMS     Force            0.008181     0.000300     NO 
 Maximum Displacement     0.400053     0.001800     NO 
 RMS     Displacement     0.113398     0.001200     NO 
 Predicted change in Energy=-8.363987D-03
 GradGradGradGradGradGradGradGradGradGradGradGradGradGradGradGradGradGrad

                          Input orientation:                          
 ---------------------------------------------------------------------
 Center     Atomic      Atomic             Coordinates (Angstroms)
 Number     Number       Type             X           Y           Z
 ---------------------------------------------------------------------
      1          6           0       -1.587959   -0.573312   -0.143655
      2          1           0       -1.147027   -1.518370    0.175597
      3          1           0       -1.685933   -0.590970   -1.232853
      4          1           0       -2.591664   -0.511530    0.285437
      5          6           0       -0.721010    0.629690    0.298056
      6          1           0       -1.231725    1.547213   -0.012237
      7          1           0       -0.651194    0.647208    1.390485
      8          6           0        0.715359    0.632606   -0.290098
      9          1           0        0.639453    0.657993   -1.381685
     10          1           0        1.219788    1.552784    0.020736
     11          6           0        1.592628   -0.575777    0.139461
     12          1           0        1.396438   -1.452887   -0.479666
     13          1           0        2.655920   -0.339762    0.049461
     14          1           0        1.396926   -0.844457    1.180962
 ---------------------------------------------------------------------
                    Distance matrix (angstroms):
                    1          2          3          4          5
     1  C    0.000000
     2  H    1.090631   0.000000
     3  H    1.093738   1.770373   0.000000
     4  H    1.093325   1.764303   1.769707   0.000000
     5  C    1.547231   2.193318   2.182835   2.191321   0.000000
     6  H    2.154252   3.072500   2.503604   2.485250   1.094971
     7  H    2.172737   2.532100   3.079882   2.515796   1.094798
     8  C    2.604028   2.883062   2.855193   3.546363   1.552125
     9  H    2.830229   3.217638   2.643763   3.819319   2.161756
    10  H    3.525728   3.880436   3.822353   4.342652   2.166958
    11  C    3.193164   2.897498   3.554214   4.187330   2.613661
    12  H    3.129406   2.627331   3.288040   4.168512   3.070108
    13  H    4.254686   3.983395   4.534217   5.255695   3.522115
    14  H    3.276839   2.817200   3.923618   4.101421   2.727322
                    6          7          8          9         10
     6  H    0.000000
     7  H    1.764839   0.000000
     8  C    2.169067   2.166112   0.000000
     9  H    2.483426   3.057910   1.094517   0.000000
    10  H    2.451741   2.489349   1.094438   1.761881   0.000000
    11  C    3.536533   2.845257   1.553805   2.178214   2.164226
    12  H    4.015761   3.478600   2.202064   2.417122   3.052158
    13  H    4.321837   3.702629   2.196948   2.666427   2.375928
    14  H    3.748815   2.542392   2.193232   3.065661   2.669132
                   11         12         13         14
    11  C    0.000000
    12  H    1.091390   0.000000
    13  H    1.092883   1.762191   0.000000
    14  H    1.093257   1.768579   1.766374   0.000000
 Stoichiometry    C4H10
 Framework group  C1[X(C4H10)]
 Deg. of freedom    36
 Full point group                 C1      NOp   1
 Largest Abelian subgroup         C1      NOp   1
 Largest concise Abelian subgroup C1      NOp   1
                         Standard orientation:                         
 ---------------------------------------------------------------------
 Center     Atomic      Atomic             Coordinates (Angstroms)
 Number     Number       Type             X           Y           Z
 ---------------------------------------------------------------------
      1          6           0        1.588017   -0.572714    0.122530
      2          1           0        1.140744   -1.515523   -0.194541
      3          1           0        1.699426   -0.594467    1.210362
      4          1           0        2.586486   -0.511945   -0.318748
      5          6           0        0.718751    0.634023   -0.304187
      6          1           0        1.235620    1.549154    0.002965
      7          1           0        0.635458    0.655578   -1.395599
      8          6           0       -0.710213    0.638480    0.301728
      9          1           0       -0.620730    0.659817    1.392372
     10          1           0       -1.216092    1.561019    0.000394
     11          6           0       -1.595828   -0.566163   -0.121158
     12          1           0       -1.394236   -1.445948    0.492415
     13          1           0       -2.657316   -0.327789   -0.017161
     14          1           0       -1.413728   -0.831652   -1.165938
 ---------------------------------------------------------------------
 Rotational constants (GHZ):     12.9151983      4.5458418      3.8619733
 Standard basis: 6-31G(d,p) (6D, 7F)
 There are   110 symmetry adapted cartesian basis functions of A   symmetry.
 There are   110 symmetry adapted basis functions of A   symmetry.
   110 basis functions,   182 primitive gaussians,   110 cartesian basis functions
    17 alpha electrons       17 beta electrons
       nuclear repulsion energy       131.2602389739 Hartrees.
 NAtoms=   14 NActive=   14 NUniq=   14 SFac= 1.00D+00 NAtFMM=   60 NAOKFM=F Big=F
 Integral buffers will be    131072 words long.
 Raffenetti 2 integral format.
 Two-electron integral symmetry is turned on.
 One-electron integrals computed using PRISM.
 NBasis=   110 RedAO= T EigKep=  5.46D-03  NBF=   110
 NBsUse=   110 1.00D-06 EigRej= -1.00D+00 NBFU=   110
 Initial guess from the checkpoint file:  "\\icnas1.cc.ic.ac.uk\dp1820\Desktop\log files\alkanes\C_4_12.chk"
 B after Tr=     0.000000    0.000000    0.000000
         Rot=    0.999983   -0.000972   -0.005489    0.001427 Ang=  -0.66 deg.
 ExpMin= 1.61D-01 ExpMax= 3.05D+03 ExpMxC= 4.57D+02 IAcc=2 IRadAn=         4 AccDes= 0.00D+00
 Harris functional with IExCor=  402 and IRadAn=       4 diagonalized for initial guess.
 HarFok:  IExCor=  402 AccDes= 0.00D+00 IRadAn=         4 IDoV= 1 UseB2=F ITyADJ=14
 ICtDFT=  3500011 ScaDFX=  1.000000  1.000000  1.000000  1.000000
 FoFCou: FMM=F IPFlag=           0 FMFlag=      100000 FMFlg1=           0
         NFxFlg=           0 DoJE=T BraDBF=F KetDBF=T FulRan=T
         wScrn=  0.000000 ICntrl=     500 IOpCl=  0 I1Cent=   200000004 NGrid=           0
         NMat0=    1 NMatS0=      1 NMatT0=    0 NMatD0=    1 NMtDS0=    0 NMtDT0=    0
 Petite list used in FoFCou.
 Keep R1 ints in memory in canonical form, NReq=19629401.
 Requested convergence on RMS density matrix=1.00D-08 within 128 cycles.
 Requested convergence on MAX density matrix=1.00D-06.
 Requested convergence on             energy=1.00D-06.
 No special actions if energy rises.
 Integral accuracy reduced to 1.0D-05 until final iterations.
 Initial convergence to 1.0D-05 achieved.  Increase integral accuracy.
 SCF Done:  E(RB3LYP) =  -158.468906758     A.U. after   10 cycles
            NFock= 10  Conv=0.36D-08     -V/T= 2.0107
 Calling FoFJK, ICntrl=      2127 FMM=F ISym2X=0 I1Cent= 0 IOpClX= 0 NMat=1 NMatS=1 NMatT=0.
 ***** Axes restored to original set *****
 -------------------------------------------------------------------
 Center     Atomic                   Forces (Hartrees/Bohr)
 Number     Number              X              Y              Z
 -------------------------------------------------------------------
      1        6           0.005853243    0.007701373    0.002428404
      2        1           0.000688854   -0.002706477    0.000077985
      3        1          -0.000513180   -0.001162112   -0.001311679
      4        1          -0.000807827    0.000112321    0.000150970
      5        6           0.003184555   -0.007770827   -0.006352846
      6        1           0.000502124    0.002245151    0.001284986
      7        1          -0.000930690    0.000905660    0.002003760
      8        6          -0.003207700   -0.007310093    0.006017302
      9        1           0.002020338    0.001423187   -0.002112729
     10        1          -0.000861871    0.002072241   -0.000328755
     11        6          -0.006603457    0.007419041   -0.003189886
     12        1          -0.000912502   -0.002322333    0.000320184
     13        1           0.000835366   -0.000064134   -0.000797189
     14        1           0.000752746   -0.000542996    0.001809492
 -------------------------------------------------------------------
 Cartesian Forces:  Max     0.007770827 RMS     0.003349141

 GradGradGradGradGradGradGradGradGradGradGradGradGradGradGradGradGradGrad
 Berny optimization.
 Using GEDIIS/GDIIS optimizer.
 FormGI is forming the generalized inverse of G from B-inverse, IUseBI=4.
 Internal  Forces:  Max     0.008032221 RMS     0.001936642
 Search for a local minimum.
 Step number   2 out of a maximum of   74
 All quantities printed in internal units (Hartrees-Bohrs-Radians)
 Mixed Optimization -- RFO/linear search
 Update second derivatives using D2CorX and points    1    2
 DE= -7.27D-03 DEPred=-8.36D-03 R= 8.69D-01
 TightC=F SS=  1.41D+00  RLast= 3.08D-01 DXNew= 5.0454D-01 9.2254D-01
 Trust test= 8.69D-01 RLast= 3.08D-01 DXMaxT set to 5.05D-01
 ITU=  1  0
 Use linear search instead of GDIIS.
     Eigenvalues ---    0.00235   0.00237   0.00241   0.03285   0.03324
     Eigenvalues ---    0.04729   0.04803   0.05386   0.05414   0.05461
     Eigenvalues ---    0.05505   0.08509   0.08560   0.12361   0.12429
     Eigenvalues ---    0.15531   0.16000   0.16000   0.16000   0.16000
     Eigenvalues ---    0.16081   0.21975   0.23145   0.28485   0.28519
     Eigenvalues ---    0.29526   0.36481   0.37230   0.37230   0.37230
     Eigenvalues ---    0.37230   0.37230   0.37230   0.37230   0.37230
     Eigenvalues ---    0.37936
 RFO step:  Lambda=-1.86215266D-03 EMin= 2.35165855D-03
 Quartic linear search produced a step of  0.00867.
 Iteration  1 RMS(Cart)=  0.06443554 RMS(Int)=  0.00411772
 Iteration  2 RMS(Cart)=  0.00427126 RMS(Int)=  0.00001591
 Iteration  3 RMS(Cart)=  0.00001457 RMS(Int)=  0.00001008
 Iteration  4 RMS(Cart)=  0.00000000 RMS(Int)=  0.00001008
 Variable       Old X    -DE/DX   Delta X   Delta X   Delta X     New X
                                 (Linear)    (Quad)   (Total)
    R1        2.06099   0.00265   0.00034   0.00928   0.00962   2.07061
    R2        2.06687   0.00137   0.00039   0.00620   0.00659   2.07345
    R3        2.06608   0.00081   0.00038   0.00464   0.00503   2.07111
    R4        2.92384  -0.00638   0.00012  -0.02146  -0.02134   2.90250
    R5        2.06919   0.00128   0.00041   0.00609   0.00650   2.07570
    R6        2.06887   0.00195   0.00041   0.00787   0.00828   2.07715
    R7        2.93309  -0.00803   0.00020  -0.02672  -0.02652   2.90657
    R8        2.06834   0.00200   0.00040   0.00796   0.00836   2.07670
    R9        2.06819   0.00125   0.00040   0.00595   0.00635   2.07454
   R10        2.93627  -0.00735   0.00023  -0.02417  -0.02395   2.91232
   R11        2.06243   0.00185   0.00035   0.00722   0.00757   2.07000
   R12        2.06525   0.00086   0.00038   0.00475   0.00513   2.07038
   R13        2.06596   0.00172   0.00038   0.00709   0.00747   2.07342
    A1        1.88992  -0.00124  -0.00018  -0.00915  -0.00937   1.88055
    A2        1.88098  -0.00024  -0.00026  -0.00290  -0.00317   1.87781
    A3        1.94297   0.00085   0.00028   0.00707   0.00733   1.95029
    A4        1.88548  -0.00057  -0.00022  -0.00497  -0.00519   1.88029
    A5        1.92521   0.00144   0.00013   0.00960   0.00970   1.93492
    A6        1.93736  -0.00035   0.00023  -0.00049  -0.00027   1.93710
    A7        1.88522   0.00221  -0.00022   0.01666   0.01645   1.90167
    A8        1.91032   0.00034   0.00000  -0.00030  -0.00030   1.91003
    A9        1.99524  -0.00274   0.00073  -0.00530  -0.00457   1.99068
   A10        1.87455  -0.00124  -0.00031  -0.01577  -0.01608   1.85847
   A11        1.89935  -0.00005  -0.00010  -0.00250  -0.00260   1.89675
   A12        1.89554   0.00152  -0.00013   0.00624   0.00610   1.90164
   A13        1.88997   0.00193  -0.00018   0.00934   0.00915   1.89912
   A14        1.89704   0.00022  -0.00012  -0.00134  -0.00145   1.89559
   A15        2.00013  -0.00338   0.00078  -0.00821  -0.00742   1.99271
   A16        1.87100  -0.00132  -0.00034  -0.01528  -0.01562   1.85538
   A17        1.91018   0.00036   0.00000  -0.00092  -0.00091   1.90928
   A18        1.89139   0.00227  -0.00017   0.01554   0.01538   1.90677
   A19        1.94624   0.00092   0.00031   0.00806   0.00834   1.95458
   A20        1.93756  -0.00031   0.00023   0.00000   0.00022   1.93778
   A21        1.93203   0.00088   0.00019   0.00586   0.00603   1.93806
   A22        1.87731  -0.00017  -0.00029  -0.00150  -0.00181   1.87550
   A23        1.88677  -0.00104  -0.00021  -0.00851  -0.00874   1.87802
   A24        1.88146  -0.00038  -0.00025  -0.00473  -0.00498   1.87648
    D1       -3.10140  -0.00007   0.00037   0.01022   0.01059  -3.09081
    D2       -1.06560  -0.00013  -0.00014   0.00058   0.00044  -1.06515
    D3        1.06493   0.00019   0.00017   0.00478   0.00496   1.06988
    D4        1.08327  -0.00003   0.00033   0.01068   0.01101   1.09428
    D5        3.11908  -0.00009  -0.00018   0.00105   0.00086   3.11994
    D6       -1.03358   0.00023   0.00013   0.00524   0.00537  -1.02821
    D7       -1.00602  -0.00004   0.00037   0.01095   0.01132  -0.99470
    D8        1.02978  -0.00010  -0.00013   0.00131   0.00117   1.03096
    D9       -3.12288   0.00022   0.00018   0.00550   0.00569  -3.11719
   D10        1.04433   0.00039  -0.00002  -0.00224  -0.00227   1.04206
   D11        3.07139  -0.00002  -0.00061  -0.01601  -0.01661   3.05478
   D12       -1.09324   0.00078  -0.00040  -0.00248  -0.00287  -1.09611
   D13       -1.06471  -0.00058  -0.00015  -0.01828  -0.01844  -1.08314
   D14        0.96235  -0.00099  -0.00073  -0.03205  -0.03278   0.92957
   D15        3.08091  -0.00019  -0.00052  -0.01852  -0.01904   3.06187
   D16       -3.10027   0.00008   0.00036  -0.00158  -0.00123  -3.10150
   D17       -1.07320  -0.00032  -0.00022  -0.01535  -0.01558  -1.08878
   D18        1.04535   0.00048  -0.00001  -0.00182  -0.00183   1.04352
   D19        1.44571  -0.00051  -0.00028  -0.15765  -0.15791   1.28780
   D20       -2.74443  -0.00031  -0.00029  -0.15415  -0.15443  -2.89886
   D21       -0.65558  -0.00041  -0.00034  -0.15623  -0.15657  -0.81215
   D22       -0.68088  -0.00092  -0.00055  -0.16338  -0.16394  -0.84482
   D23        1.41217  -0.00073  -0.00057  -0.15989  -0.16046   1.25171
   D24       -2.78216  -0.00082  -0.00061  -0.16197  -0.16260  -2.94477
   D25       -2.71583  -0.00081  -0.00004  -0.15336  -0.15339  -2.86922
   D26       -0.62278  -0.00062  -0.00005  -0.14986  -0.14991  -0.77269
   D27        1.46607  -0.00071  -0.00010  -0.15194  -0.15205   1.31402
         Item               Value     Threshold  Converged?
 Maximum Force            0.008032     0.000450     NO 
 RMS     Force            0.001937     0.000300     NO 
 Maximum Displacement     0.237386     0.001800     NO 
 RMS     Displacement     0.064410     0.001200     NO 
 Predicted change in Energy=-1.129330D-03
 GradGradGradGradGradGradGradGradGradGradGradGradGradGradGradGradGradGrad

                          Input orientation:                          
 ---------------------------------------------------------------------
 Center     Atomic      Atomic             Coordinates (Angstroms)
 Number     Number       Type             X           Y           Z
 ---------------------------------------------------------------------
      1          6           0       -1.566385   -0.573008   -0.166844
      2          1           0       -1.128061   -1.528717    0.141535
      3          1           0       -1.656734   -0.583809   -1.260289
      4          1           0       -2.578236   -0.522432    0.251225
      5          6           0       -0.717984    0.619142    0.300160
      6          1           0       -1.223717    1.551102    0.013468
      7          1           0       -0.661291    0.620027    1.397876
      8          6           0        0.708879    0.636379   -0.273849
      9          1           0        0.649242    0.677161   -1.370415
     10          1           0        1.202647    1.564364    0.042696
     11          6           0        1.573110   -0.568161    0.147198
     12          1           0        1.277543   -1.486405   -0.371806
     13          1           0        2.630845   -0.390282   -0.076159
     14          1           0        1.490140   -0.754930    1.225205
 ---------------------------------------------------------------------
                    Distance matrix (angstroms):
                    1          2          3          4          5
     1  C    0.000000
     2  H    1.095721   0.000000
     3  H    1.097224   1.771286   0.000000
     4  H    1.095984   1.768516   1.771328   0.000000
     5  C    1.535936   2.192401   2.182509   2.183146   0.000000
     6  H    2.159115   3.083964   2.523451   2.488131   1.098411
     7  H    2.165843   2.532462   3.083174   2.508923   1.099179
     8  C    2.578933   2.869588   2.838670   3.524723   1.538091
     9  H    2.814340   3.211027   2.630532   3.805963   2.159512
    10  H    3.504256   3.874161   3.806374   4.323573   2.156051
    11  C    3.155166   2.866884   3.523231   4.152901   2.584995
    12  H    2.994032   2.460129   3.195945   4.022989   2.977750
    13  H    4.202184   3.933548   4.452298   5.221031   3.517841
    14  H    3.363517   2.937357   4.013699   4.189794   2.760361
                    6          7          8          9         10
     6  H    0.000000
     7  H    1.760627   0.000000
     8  C    2.157359   2.161551   0.000000
     9  H    2.487343   3.063364   1.098943   0.000000
    10  H    2.426576   2.490493   1.097800   1.757917   0.000000
    11  C    3.511609   2.822860   1.541133   2.169679   2.166985
    12  H    3.953629   3.365695   2.199814   2.464346   3.079710
    13  H    4.316787   3.745886   2.187937   2.596399   2.423740
    14  H    3.761796   2.559097   2.189354   3.081435   2.619180
                   11         12         13         14
    11  C    0.000000
    12  H    1.095398   0.000000
    13  H    1.095597   1.766443   0.000000
    14  H    1.097209   1.769378   1.768537   0.000000
 Stoichiometry    C4H10
 Framework group  C1[X(C4H10)]
 Deg. of freedom    36
 Full point group                 C1      NOp   1
 Largest Abelian subgroup         C1      NOp   1
 Largest concise Abelian subgroup C1      NOp   1
                         Standard orientation:                         
 ---------------------------------------------------------------------
 Center     Atomic      Atomic             Coordinates (Angstroms)
 Number     Number       Type             X           Y           Z
 ---------------------------------------------------------------------
      1          6           0        1.570279   -0.567771    0.123270
      2          1           0        1.126885   -1.518701   -0.192547
      3          1           0        1.684602   -0.597972    1.214103
      4          1           0        2.572634   -0.507638   -0.315878
      5          6           0        0.709864    0.630809   -0.303568
      6          1           0        1.220214    1.558520   -0.011332
      7          1           0        0.629113    0.651240   -1.399587
      8          6           0       -0.704096    0.634831    0.301762
      9          1           0       -0.620494    0.656087    1.397314
     10          1           0       -1.206226    1.567322    0.012815
     11          6           0       -1.575351   -0.563745   -0.121820
     12          1           0       -1.266950   -1.490530    0.374018
     13          1           0       -2.628228   -0.392067    0.127799
     14          1           0       -1.515730   -0.731003   -1.204565
 ---------------------------------------------------------------------
 Rotational constants (GHZ):     12.9500272      4.6353253      3.9318465
 Standard basis: 6-31G(d,p) (6D, 7F)
 There are   110 symmetry adapted cartesian basis functions of A   symmetry.
 There are   110 symmetry adapted basis functions of A   symmetry.
   110 basis functions,   182 primitive gaussians,   110 cartesian basis functions
    17 alpha electrons       17 beta electrons
       nuclear repulsion energy       131.8665086636 Hartrees.
 NAtoms=   14 NActive=   14 NUniq=   14 SFac= 1.00D+00 NAtFMM=   60 NAOKFM=F Big=F
 Integral buffers will be    131072 words long.
 Raffenetti 2 integral format.
 Two-electron integral symmetry is turned on.
 One-electron integrals computed using PRISM.
 NBasis=   110 RedAO= T EigKep=  5.37D-03  NBF=   110
 NBsUse=   110 1.00D-06 EigRej= -1.00D+00 NBFU=   110
 Initial guess from the checkpoint file:  "\\icnas1.cc.ic.ac.uk\dp1820\Desktop\log files\alkanes\C_4_12.chk"
 B after Tr=     0.000000    0.000000    0.000000
         Rot=    0.999983   -0.005076   -0.002508   -0.001373 Ang=  -0.67 deg.
 ExpMin= 1.61D-01 ExpMax= 3.05D+03 ExpMxC= 4.57D+02 IAcc=2 IRadAn=         4 AccDes= 0.00D+00
 Harris functional with IExCor=  402 and IRadAn=       4 diagonalized for initial guess.
 HarFok:  IExCor=  402 AccDes= 0.00D+00 IRadAn=         4 IDoV= 1 UseB2=F ITyADJ=14
 ICtDFT=  3500011 ScaDFX=  1.000000  1.000000  1.000000  1.000000
 FoFCou: FMM=F IPFlag=           0 FMFlag=      100000 FMFlg1=           0
         NFxFlg=           0 DoJE=T BraDBF=F KetDBF=T FulRan=T
         wScrn=  0.000000 ICntrl=     500 IOpCl=  0 I1Cent=   200000004 NGrid=           0
         NMat0=    1 NMatS0=      1 NMatT0=    0 NMatD0=    1 NMtDS0=    0 NMtDT0=    0
 Petite list used in FoFCou.
 Keep R1 ints in memory in canonical form, NReq=19629401.
 Requested convergence on RMS density matrix=1.00D-08 within 128 cycles.
 Requested convergence on MAX density matrix=1.00D-06.
 Requested convergence on             energy=1.00D-06.
 No special actions if energy rises.
 Integral accuracy reduced to 1.0D-05 until final iterations.
 Initial convergence to 1.0D-05 achieved.  Increase integral accuracy.
 SCF Done:  E(RB3LYP) =  -158.470195762     A.U. after    9 cycles
            NFock=  9  Conv=0.77D-08     -V/T= 2.0107
 Calling FoFJK, ICntrl=      2127 FMM=F ISym2X=0 I1Cent= 0 IOpClX= 0 NMat=1 NMatS=1 NMatT=0.
 ***** Axes restored to original set *****
 -------------------------------------------------------------------
 Center     Atomic                   Forces (Hartrees/Bohr)
 Number     Number              X              Y              Z
 -------------------------------------------------------------------
      1        6           0.000319935    0.001443829    0.000609929
      2        1          -0.000457970    0.000543103   -0.000242463
      3        1          -0.000036425   -0.000361637    0.000631566
      4        1           0.000558207   -0.000338419   -0.000474494
      5        6          -0.000034081   -0.001646721   -0.001361150
      6        1           0.000110637   -0.000391761    0.000783479
      7        1          -0.000349909    0.000262694   -0.000367914
      8        6           0.000370047   -0.002407672    0.001082745
      9        1           0.001057298    0.000480526    0.000198498
     10        1          -0.000062668   -0.000477972    0.000059937
     11        6          -0.001009271    0.002443618   -0.000714267
     12        1          -0.000316420    0.000484538    0.000709217
     13        1          -0.000589949   -0.000486554   -0.000504161
     14        1           0.000440569    0.000452428   -0.000410922
 -------------------------------------------------------------------
 Cartesian Forces:  Max     0.002443618 RMS     0.000823054

 GradGradGradGradGradGradGradGradGradGradGradGradGradGradGradGradGradGrad
 Berny optimization.
 Using GEDIIS/GDIIS optimizer.
 FormGI is forming the generalized inverse of G from B-inverse, IUseBI=4.
 Internal  Forces:  Max     0.003340652 RMS     0.000557740
 Search for a local minimum.
 Step number   3 out of a maximum of   74
 All quantities printed in internal units (Hartrees-Bohrs-Radians)
 Mixed Optimization -- En-DIIS/RFO-DIIS
 Update second derivatives using D2CorX and points    2    3
 DE= -1.29D-03 DEPred=-1.13D-03 R= 1.14D+00
 TightC=F SS=  1.41D+00  RLast= 4.78D-01 DXNew= 8.4853D-01 1.4331D+00
 Trust test= 1.14D+00 RLast= 4.78D-01 DXMaxT set to 8.49D-01
 ITU=  1  1  0
 Use linear search instead of GDIIS.
     Eigenvalues ---    0.00186   0.00237   0.00242   0.03290   0.03317
     Eigenvalues ---    0.04611   0.04718   0.05318   0.05354   0.05433
     Eigenvalues ---    0.05449   0.08508   0.08618   0.12348   0.12549
     Eigenvalues ---    0.15353   0.16000   0.16000   0.16000   0.16037
     Eigenvalues ---    0.16149   0.21914   0.23036   0.27291   0.28522
     Eigenvalues ---    0.32296   0.36468   0.37230   0.37230   0.37230
     Eigenvalues ---    0.37230   0.37230   0.37230   0.37230   0.37291
     Eigenvalues ---    0.37571
 RFO step:  Lambda=-4.01994146D-04 EMin= 1.86395866D-03
 Quartic linear search produced a step of  0.49554.
 Iteration  1 RMS(Cart)=  0.07155346 RMS(Int)=  0.00509740
 Iteration  2 RMS(Cart)=  0.00529428 RMS(Int)=  0.00002011
 Iteration  3 RMS(Cart)=  0.00002184 RMS(Int)=  0.00000772
 Iteration  4 RMS(Cart)=  0.00000000 RMS(Int)=  0.00000772
 Variable       Old X    -DE/DX   Delta X   Delta X   Delta X     New X
                                 (Linear)    (Quad)   (Total)
    R1        2.07061  -0.00073   0.00477  -0.00597  -0.00120   2.06941
    R2        2.07345  -0.00062   0.00326  -0.00443  -0.00117   2.07228
    R3        2.07111  -0.00071   0.00249  -0.00423  -0.00174   2.06937
    R4        2.90250  -0.00137  -0.01058   0.00086  -0.00972   2.89278
    R5        2.07570  -0.00059   0.00322  -0.00425  -0.00103   2.07467
    R6        2.07715  -0.00039   0.00410  -0.00410   0.00000   2.07715
    R7        2.90657  -0.00025  -0.01314   0.00846  -0.00468   2.90189
    R8        2.07670  -0.00024   0.00414  -0.00356   0.00058   2.07728
    R9        2.07454  -0.00041   0.00315  -0.00353  -0.00038   2.07416
   R10        2.91232  -0.00334  -0.01187  -0.00810  -0.01997   2.89235
   R11        2.07000  -0.00066   0.00375  -0.00496  -0.00120   2.06880
   R12        2.07038  -0.00055   0.00254  -0.00362  -0.00108   2.06930
   R13        2.07342  -0.00051   0.00370  -0.00434  -0.00064   2.07279
    A1        1.88055  -0.00030  -0.00464  -0.00021  -0.00487   1.87568
    A2        1.87781  -0.00030  -0.00157  -0.00210  -0.00368   1.87414
    A3        1.95029   0.00007   0.00363  -0.00230   0.00132   1.95162
    A4        1.88029  -0.00035  -0.00257  -0.00046  -0.00306   1.87723
    A5        1.93492   0.00039   0.00481   0.00025   0.00504   1.93996
    A6        1.93710   0.00044  -0.00013   0.00469   0.00454   1.94164
    A7        1.90167  -0.00012   0.00815  -0.00677   0.00137   1.90304
    A8        1.91003  -0.00017  -0.00015  -0.00097  -0.00112   1.90890
    A9        1.99068   0.00042  -0.00226   0.00717   0.00489   1.99556
   A10        1.85847  -0.00022  -0.00797  -0.00302  -0.01098   1.84749
   A11        1.89675   0.00001  -0.00129   0.00282   0.00152   1.89827
   A12        1.90164   0.00005   0.00302   0.00011   0.00313   1.90477
   A13        1.89912   0.00027   0.00453   0.00258   0.00712   1.90624
   A14        1.89559   0.00029  -0.00072   0.00492   0.00421   1.89981
   A15        1.99271   0.00010  -0.00368   0.00545   0.00177   1.99448
   A16        1.85538  -0.00017  -0.00774  -0.00036  -0.00811   1.84727
   A17        1.90928  -0.00018  -0.00045  -0.00157  -0.00203   1.90724
   A18        1.90677  -0.00032   0.00762  -0.01132  -0.00370   1.90307
   A19        1.95458  -0.00023   0.00413  -0.00557  -0.00144   1.95314
   A20        1.93778   0.00023   0.00011   0.00269   0.00279   1.94057
   A21        1.93806  -0.00004   0.00299  -0.00211   0.00087   1.93893
   A22        1.87550  -0.00003  -0.00090  -0.00027  -0.00117   1.87433
   A23        1.87802   0.00007  -0.00433   0.00269  -0.00165   1.87637
   A24        1.87648   0.00000  -0.00247   0.00295   0.00048   1.87696
    D1       -3.09081   0.00024   0.00525   0.02448   0.02974  -3.06107
    D2       -1.06515  -0.00018   0.00022   0.01653   0.01676  -1.04839
    D3        1.06988   0.00004   0.00246   0.02097   0.02343   1.09331
    D4        1.09428   0.00031   0.00546   0.02613   0.03159   1.12587
    D5        3.11994  -0.00011   0.00043   0.01818   0.01860   3.13854
    D6       -1.02821   0.00011   0.00266   0.02261   0.02527  -1.00294
    D7       -0.99470   0.00021   0.00561   0.02346   0.02908  -0.96563
    D8        1.03096  -0.00021   0.00058   0.01551   0.01609   1.04705
    D9       -3.11719   0.00001   0.00282   0.01995   0.02276  -3.09443
   D10        1.04206  -0.00005  -0.00112  -0.01905  -0.02018   1.02189
   D11        3.05478   0.00004  -0.00823  -0.01546  -0.02370   3.03108
   D12       -1.09611  -0.00009  -0.00142  -0.02271  -0.02414  -1.12024
   D13       -1.08314  -0.00019  -0.00914  -0.01725  -0.02638  -1.10953
   D14        0.92957  -0.00009  -0.01624  -0.01366  -0.02991   0.89966
   D15        3.06187  -0.00022  -0.00943  -0.02091  -0.03034   3.03153
   D16       -3.10150   0.00004  -0.00061  -0.01525  -0.01586  -3.11735
   D17       -1.08878   0.00014  -0.00772  -0.01167  -0.01938  -1.10816
   D18        1.04352   0.00001  -0.00091  -0.01891  -0.01982   1.02370
   D19        1.28780  -0.00040  -0.07825  -0.09225  -0.17049   1.11730
   D20       -2.89886  -0.00044  -0.07652  -0.09452  -0.17104  -3.06990
   D21       -0.81215  -0.00031  -0.07758  -0.09042  -0.16800  -0.98015
   D22       -0.84482  -0.00068  -0.08124  -0.09823  -0.17946  -1.02428
   D23        1.25171  -0.00072  -0.07952  -0.10050  -0.18001   1.07170
   D24       -2.94477  -0.00059  -0.08058  -0.09640  -0.17697  -3.12173
   D25       -2.86922  -0.00019  -0.07601  -0.09056  -0.16658  -3.03580
   D26       -0.77269  -0.00023  -0.07429  -0.09283  -0.16712  -0.93982
   D27        1.31402  -0.00010  -0.07535  -0.08873  -0.16409   1.14993
         Item               Value     Threshold  Converged?
 Maximum Force            0.003341     0.000450     NO 
 RMS     Force            0.000558     0.000300     NO 
 Maximum Displacement     0.259717     0.001800     NO 
 RMS     Displacement     0.071429     0.001200     NO 
 Predicted change in Energy=-4.769010D-04
 GradGradGradGradGradGradGradGradGradGradGradGradGradGradGradGradGradGrad

                          Input orientation:                          
 ---------------------------------------------------------------------
 Center     Atomic      Atomic             Coordinates (Angstroms)
 Number     Number       Type             X           Y           Z
 ---------------------------------------------------------------------
      1          6           0       -1.568124   -0.570894   -0.194690
      2          1           0       -1.148382   -1.535720    0.108854
      3          1           0       -1.636179   -0.571215   -1.289181
      4          1           0       -2.588402   -0.519408    0.199711
      5          6           0       -0.720125    0.601227    0.305666
      6          1           0       -1.223280    1.542577    0.048745
      7          1           0       -0.673988    0.575340    1.403571
      8          6           0        0.708093    0.634851   -0.257516
      9          1           0        0.663326    0.685908   -1.354667
     10          1           0        1.195112    1.563753    0.066017
     11          6           0        1.576491   -0.555073    0.157934
     12          1           0        1.188454   -1.500603   -0.234370
     13          1           0        2.601874   -0.444264   -0.210017
     14          1           0        1.625130   -0.646050    1.249945
 ---------------------------------------------------------------------
                    Distance matrix (angstroms):
                    1          2          3          4          5
     1  C    0.000000
     2  H    1.095085   0.000000
     3  H    1.096605   1.767122   0.000000
     4  H    1.095066   1.764880   1.768111   0.000000
     5  C    1.530793   2.188305   2.181126   2.181171   0.000000
     6  H    2.155212   3.079794   2.535477   2.477525   1.097867
     7  H    2.160503   2.521491   3.080797   2.512515   1.099179
     8  C    2.576613   2.879601   2.830995   3.522534   1.535614
     9  H    2.811489   3.218666   2.621520   3.800344   2.162825
    10  H    3.501451   3.885940   3.796163   4.321158   2.156854
    11  C    3.164364   2.896379   3.523585   4.165255   2.575518
    12  H    2.909408   2.362168   3.155145   3.926297   2.889982
    13  H    4.171949   3.918849   4.375135   5.206965   3.520604
    14  H    3.505637   3.128253   4.133871   4.344292   2.819145
                    6          7          8          9         10
     6  H    0.000000
     7  H    1.752946   0.000000
     8  C    2.155913   2.161689   0.000000
     9  H    2.502545   3.067330   1.099250   0.000000
    10  H    2.418546   2.501909   1.097598   1.752641   0.000000
    11  C    3.500110   2.809644   1.530566   2.159135   2.154837
    12  H    3.893270   3.234359   2.188937   2.512300   3.079051
    13  H    4.318136   3.791376   2.180173   2.519024   2.467247
    14  H    3.787665   2.607938   2.180391   3.079477   2.543587
                   11         12         13         14
    11  C    0.000000
    12  H    1.094761   0.000000
    13  H    1.095024   1.764710   0.000000
    14  H    1.096872   1.767522   1.768117   0.000000
 Stoichiometry    C4H10
 Framework group  C1[X(C4H10)]
 Deg. of freedom    36
 Full point group                 C1      NOp   1
 Largest Abelian subgroup         C1      NOp   1
 Largest concise Abelian subgroup C1      NOp   1
                         Standard orientation:                         
 ---------------------------------------------------------------------
 Center     Atomic      Atomic             Coordinates (Angstroms)
 Number     Number       Type             X           Y           Z
 ---------------------------------------------------------------------
      1          6           0        1.577830   -0.557338    0.123755
      2          1           0        1.156040   -1.514544   -0.200375
      3          1           0        1.682461   -0.596249    1.214663
      4          1           0        2.583889   -0.482218   -0.302123
      5          6           0        0.704047    0.623988   -0.305547
      6          1           0        1.207832    1.560186   -0.031597
      7          1           0        0.621420    0.637038   -1.401538
      8          6           0       -0.704757    0.624060    0.305502
      9          1           0       -0.623729    0.636178    1.401695
     10          1           0       -1.209876    1.559370    0.032061
     11          6           0       -1.576846   -0.558271   -0.123665
     12          1           0       -1.168215   -1.513587    0.221145
     13          1           0       -2.590215   -0.470307    0.281828
     14          1           0       -1.661247   -0.610503   -1.216037
 ---------------------------------------------------------------------
 Rotational constants (GHZ):     13.1372393      4.6160191      3.9388481
 Standard basis: 6-31G(d,p) (6D, 7F)
 There are   110 symmetry adapted cartesian basis functions of A   symmetry.
 There are   110 symmetry adapted basis functions of A   symmetry.
   110 basis functions,   182 primitive gaussians,   110 cartesian basis functions
    17 alpha electrons       17 beta electrons
       nuclear repulsion energy       132.0943678359 Hartrees.
 NAtoms=   14 NActive=   14 NUniq=   14 SFac= 1.00D+00 NAtFMM=   60 NAOKFM=F Big=F
 Integral buffers will be    131072 words long.
 Raffenetti 2 integral format.
 Two-electron integral symmetry is turned on.
 One-electron integrals computed using PRISM.
 NBasis=   110 RedAO= T EigKep=  5.38D-03  NBF=   110
 NBsUse=   110 1.00D-06 EigRej= -1.00D+00 NBFU=   110
 Initial guess from the checkpoint file:  "\\icnas1.cc.ic.ac.uk\dp1820\Desktop\log files\alkanes\C_4_12.chk"
 B after Tr=     0.000000    0.000000    0.000000
         Rot=    0.999970   -0.006577   -0.003227   -0.002375 Ang=  -0.88 deg.
 ExpMin= 1.61D-01 ExpMax= 3.05D+03 ExpMxC= 4.57D+02 IAcc=2 IRadAn=         4 AccDes= 0.00D+00
 Harris functional with IExCor=  402 and IRadAn=       4 diagonalized for initial guess.
 HarFok:  IExCor=  402 AccDes= 0.00D+00 IRadAn=         4 IDoV= 1 UseB2=F ITyADJ=14
 ICtDFT=  3500011 ScaDFX=  1.000000  1.000000  1.000000  1.000000
 FoFCou: FMM=F IPFlag=           0 FMFlag=      100000 FMFlg1=           0
         NFxFlg=           0 DoJE=T BraDBF=F KetDBF=T FulRan=T
         wScrn=  0.000000 ICntrl=     500 IOpCl=  0 I1Cent=   200000004 NGrid=           0
         NMat0=    1 NMatS0=      1 NMatT0=    0 NMatD0=    1 NMtDS0=    0 NMtDT0=    0
 Petite list used in FoFCou.
 Keep R1 ints in memory in canonical form, NReq=19629401.
 Requested convergence on RMS density matrix=1.00D-08 within 128 cycles.
 Requested convergence on MAX density matrix=1.00D-06.
 Requested convergence on             energy=1.00D-06.
 No special actions if energy rises.
 Integral accuracy reduced to 1.0D-05 until final iterations.
 Initial convergence to 1.0D-05 achieved.  Increase integral accuracy.
 SCF Done:  E(RB3LYP) =  -158.470617147     A.U. after    9 cycles
            NFock=  9  Conv=0.60D-08     -V/T= 2.0105
 Calling FoFJK, ICntrl=      2127 FMM=F ISym2X=0 I1Cent= 0 IOpClX= 0 NMat=1 NMatS=1 NMatT=0.
 ***** Axes restored to original set *****
 -------------------------------------------------------------------
 Center     Atomic                   Forces (Hartrees/Bohr)
 Number     Number              X              Y              Z
 -------------------------------------------------------------------
      1        6          -0.000565976   -0.001044429   -0.000427271
      2        1          -0.000259109    0.000124195   -0.000026334
      3        1           0.000031822    0.000120132    0.000093689
      4        1           0.000120150    0.000045918    0.000057736
      5        6          -0.000537793    0.001139794    0.000578838
      6        1           0.000042910   -0.000126847   -0.000148645
      7        1           0.000180505   -0.000115143   -0.000136960
      8        6           0.000402772    0.000691399   -0.000898835
      9        1          -0.000272469    0.000022958    0.000152791
     10        1          -0.000149466   -0.000002672    0.000329300
     11        6           0.000938283   -0.000841941    0.000718105
     12        1           0.000088953    0.000000602    0.000052684
     13        1          -0.000080336   -0.000082504   -0.000118634
     14        1           0.000059753    0.000068538   -0.000226465
 -------------------------------------------------------------------
 Cartesian Forces:  Max     0.001139794 RMS     0.000426186

 GradGradGradGradGradGradGradGradGradGradGradGradGradGradGradGradGradGrad
 Berny optimization.
 Using GEDIIS/GDIIS optimizer.
 FormGI is forming the generalized inverse of G from B-inverse, IUseBI=4.
 Internal  Forces:  Max     0.001351471 RMS     0.000300510
 Search for a local minimum.
 Step number   4 out of a maximum of   74
 All quantities printed in internal units (Hartrees-Bohrs-Radians)
 Mixed Optimization -- En-DIIS/RFO-DIIS
 Swapping is turned off.
 Update second derivatives using D2CorX and points    3    4
 DE= -4.21D-04 DEPred=-4.77D-04 R= 8.84D-01
 TightC=F SS=  1.41D+00  RLast= 5.26D-01 DXNew= 1.4270D+00 1.5773D+00
 Trust test= 8.84D-01 RLast= 5.26D-01 DXMaxT set to 1.43D+00
 ITU=  1  1  1  0
     Eigenvalues ---    0.00207   0.00238   0.00246   0.03254   0.03275
     Eigenvalues ---    0.04641   0.04708   0.05325   0.05332   0.05399
     Eigenvalues ---    0.05414   0.08575   0.08746   0.12389   0.12586
     Eigenvalues ---    0.15386   0.16000   0.16000   0.16001   0.16054
     Eigenvalues ---    0.16202   0.21919   0.22985   0.28279   0.28518
     Eigenvalues ---    0.32668   0.36568   0.37224   0.37230   0.37230
     Eigenvalues ---    0.37230   0.37230   0.37230   0.37230   0.37285
     Eigenvalues ---    0.37689
 En-DIIS/RFO-DIIS IScMMF=        0 using points:     4    3
 RFO step:  Lambda=-1.16722319D-05.
 DidBck=F Rises=F RFO-DIIS coefs:    1.05273   -0.05273
 Iteration  1 RMS(Cart)=  0.01557902 RMS(Int)=  0.00016123
 Iteration  2 RMS(Cart)=  0.00017276 RMS(Int)=  0.00000118
 Iteration  3 RMS(Cart)=  0.00000002 RMS(Int)=  0.00000118
 Variable       Old X    -DE/DX   Delta X   Delta X   Delta X     New X
                                 (Linear)    (Quad)   (Total)
    R1        2.06941  -0.00022  -0.00006  -0.00072  -0.00078   2.06863
    R2        2.07228  -0.00010  -0.00006  -0.00053  -0.00059   2.07169
    R3        2.06937  -0.00009  -0.00009  -0.00051  -0.00061   2.06877
    R4        2.89278   0.00105  -0.00051   0.00364   0.00312   2.89590
    R5        2.07467  -0.00009  -0.00005  -0.00056  -0.00061   2.07406
    R6        2.07715  -0.00013   0.00000  -0.00065  -0.00065   2.07650
    R7        2.90189   0.00091  -0.00025   0.00263   0.00238   2.90427
    R8        2.07728  -0.00014   0.00003  -0.00071  -0.00068   2.07660
    R9        2.07416   0.00003  -0.00002  -0.00024  -0.00026   2.07390
   R10        2.89235   0.00135  -0.00105   0.00506   0.00401   2.89636
   R11        2.06880  -0.00005  -0.00006  -0.00032  -0.00039   2.06841
   R12        2.06930  -0.00004  -0.00006  -0.00041  -0.00047   2.06883
   R13        2.07279  -0.00023  -0.00003  -0.00090  -0.00093   2.07186
    A1        1.87568   0.00002  -0.00026   0.00124   0.00098   1.87666
    A2        1.87414  -0.00008  -0.00019  -0.00034  -0.00053   1.87360
    A3        1.95162   0.00028   0.00007   0.00187   0.00194   1.95356
    A4        1.87723   0.00012  -0.00016   0.00053   0.00036   1.87760
    A5        1.93996  -0.00016   0.00027  -0.00106  -0.00079   1.93916
    A6        1.94164  -0.00018   0.00024  -0.00216  -0.00192   1.93972
    A7        1.90304  -0.00025   0.00007  -0.00128  -0.00121   1.90182
    A8        1.90890  -0.00005  -0.00006   0.00071   0.00065   1.90955
    A9        1.99556   0.00052   0.00026   0.00088   0.00114   1.99670
   A10        1.84749   0.00018  -0.00058   0.00235   0.00177   1.84926
   A11        1.89827  -0.00015   0.00008  -0.00134  -0.00126   1.89701
   A12        1.90477  -0.00027   0.00016  -0.00119  -0.00103   1.90374
   A13        1.90624  -0.00045   0.00038  -0.00239  -0.00202   1.90422
   A14        1.89981  -0.00032   0.00022  -0.00343  -0.00321   1.89660
   A15        1.99448   0.00077   0.00009   0.00217   0.00226   1.99674
   A16        1.84727   0.00023  -0.00043   0.00235   0.00192   1.84919
   A17        1.90724   0.00002  -0.00011   0.00251   0.00240   1.90964
   A18        1.90307  -0.00028  -0.00020  -0.00118  -0.00138   1.90169
   A19        1.95314   0.00012  -0.00008   0.00067   0.00059   1.95373
   A20        1.94057  -0.00003   0.00015  -0.00090  -0.00075   1.93982
   A21        1.93893   0.00000   0.00005   0.00013   0.00018   1.93911
   A22        1.87433  -0.00009  -0.00006  -0.00066  -0.00073   1.87360
   A23        1.87637  -0.00002  -0.00009   0.00039   0.00030   1.87667
   A24        1.87696   0.00002   0.00003   0.00038   0.00041   1.87737
    D1       -3.06107   0.00003   0.00157  -0.00150   0.00007  -3.06100
    D2       -1.04839   0.00007   0.00088   0.00098   0.00186  -1.04653
    D3        1.09331   0.00005   0.00124   0.00058   0.00182   1.09513
    D4        1.12587  -0.00008   0.00167  -0.00363  -0.00196   1.12391
    D5        3.13854  -0.00003   0.00098  -0.00115  -0.00017   3.13837
    D6       -1.00294  -0.00006   0.00133  -0.00154  -0.00021  -1.00315
    D7       -0.96563  -0.00001   0.00153  -0.00214  -0.00061  -0.96623
    D8        1.04705   0.00004   0.00085   0.00034   0.00119   1.04823
    D9       -3.09443   0.00002   0.00120  -0.00006   0.00114  -3.09329
   D10        1.02189   0.00003  -0.00106  -0.01286  -0.01392   1.00797
   D11        3.03108  -0.00012  -0.00125  -0.01323  -0.01448   3.01660
   D12       -1.12024  -0.00019  -0.00127  -0.01584  -0.01711  -1.13735
   D13       -1.10953   0.00010  -0.00139  -0.01080  -0.01219  -1.12172
   D14        0.89966  -0.00004  -0.00158  -0.01117  -0.01275   0.88691
   D15        3.03153  -0.00011  -0.00160  -0.01378  -0.01538   3.01615
   D16       -3.11735   0.00012  -0.00084  -0.01222  -0.01306  -3.13041
   D17       -1.10816  -0.00003  -0.00102  -0.01259  -0.01361  -1.12177
   D18        1.02370  -0.00010  -0.00104  -0.01520  -0.01624   1.00746
   D19        1.11730   0.00000  -0.00899  -0.01403  -0.02302   1.09429
   D20       -3.06990  -0.00005  -0.00902  -0.01504  -0.02406  -3.09395
   D21       -0.98015  -0.00005  -0.00886  -0.01507  -0.02392  -1.00407
   D22       -1.02428   0.00004  -0.00946  -0.01435  -0.02381  -1.04809
   D23        1.07170  -0.00002  -0.00949  -0.01536  -0.02485   1.04685
   D24       -3.12173  -0.00001  -0.00933  -0.01538  -0.02472   3.13673
[...]
    -- Stationary point found.
                           ----------------------------
                           !   Optimized Parameters   !
                           ! (Angstroms and Degrees)  !
 --------------------------                            --------------------------
 ! Name  Definition              Value          Derivative Info.                !
 --------------------------------------------------------------------------------
 ! R1    R(1,2)                  1.0948         -DE/DX =    0.0                 !
 ! R2    R(1,3)                  1.0964         -DE/DX =    0.0                 !
 ! R3    R(1,4)                  1.0949         -DE/DX =    0.0                 !
 ! R4    R(1,5)                  1.5328         -DE/DX =    0.0                 !
 ! R5    R(5,6)                  1.0976         -DE/DX =    0.0                 !
 ! R6    R(5,7)                  1.0989         -DE/DX =    0.0                 !
 ! R7    R(5,8)                  1.5375         -DE/DX =    0.0                 !
 ! R8    R(8,9)                  1.0989         -DE/DX =    0.0                 !
 ! R9    R(8,10)                 1.0976         -DE/DX =    0.0                 !
 ! R10   R(8,11)                 1.5328         -DE/DX =    0.0                 !
 ! R11   R(11,12)                1.0947         -DE/DX =    0.0                 !
 ! R12   R(11,13)                1.0949         -DE/DX =    0.0                 !
 ! R13   R(11,14)                1.0964         -DE/DX =    0.0                 !
 ! A1    A(2,1,3)              107.5501         -DE/DX =    0.0                 !
 ! A2    A(2,1,4)              107.3567         -DE/DX =    0.0                 !
 ! A3    A(2,1,5)              111.9333         -DE/DX =    0.0                 !
 ! A4    A(3,1,4)              107.5992         -DE/DX =    0.0                 !
 ! A5    A(3,1,5)              111.0642         -DE/DX =    0.0                 !
 ! A6    A(4,1,5)              111.1275         -DE/DX =    0.0                 !
 ! A7    A(1,5,6)              108.9203         -DE/DX =    0.0                 !
 ! A8    A(1,5,7)              109.3983         -DE/DX =    0.0                 !
 ! A9    A(1,5,8)              114.4251         -DE/DX =    0.0                 !
 ! A10   A(6,5,7)              105.9977         -DE/DX =    0.0                 !
 ! A11   A(6,5,8)              108.6817         -DE/DX =    0.0                 !
 ! A12   A(7,5,8)              109.0789         -DE/DX =    0.0                 !
 ! A13   A(5,8,9)              109.0799         -DE/DX =    0.0                 !
 ! A14   A(5,8,10)             108.6852         -DE/DX =    0.0                 !
 ! A15   A(5,8,11)             114.4214         -DE/DX =    0.0                 !
 ! A16   A(9,8,10)             105.9999         -DE/DX =    0.0                 !
 ! A17   A(9,8,11)             109.3964         -DE/DX =    0.0                 !
 ! A18   A(10,8,11)            108.9197         -DE/DX =    0.0                 !
 ! A19   A(8,11,12)            111.9322         -DE/DX =    0.0                 !
 ! A20   A(8,11,13)            111.1264         -DE/DX =    0.0                 !
 ! A21   A(8,11,14)            111.0632         -DE/DX =    0.0                 !
 ! A22   A(12,11,13)           107.3596         -DE/DX =    0.0                 !
 ! A23   A(12,11,14)           107.5508         -DE/DX =    0.0                 !
 ! A24   A(13,11,14)           107.5988         -DE/DX =    0.0                 !
 ! D1    D(2,1,5,6)           -175.603          -DE/DX =    0.0                 !
 ! D2    D(2,1,5,7)            -60.1627         -DE/DX =    0.0                 !
 ! D3    D(2,1,5,8)             62.5564         -DE/DX =    0.0                 !
 ! D4    D(3,1,5,6)             64.1695         -DE/DX =    0.0                 !
 ! D5    D(3,1,5,7)            179.6099         -DE/DX =    0.0                 !
 ! D6    D(3,1,5,8)            -57.6711         -DE/DX =    0.0                 !
 ! D7    D(4,1,5,6)            -55.5784         -DE/DX =    0.0                 !
 ! D8    D(4,1,5,7)             59.862          -DE/DX =    0.0                 !
 ! D9    D(4,1,5,8)           -177.419          -DE/DX =    0.0                 !
 ! D10   D(1,5,8,9)             57.7083         -DE/DX =    0.0                 !
 ! D11   D(1,5,8,10)           172.8503         -DE/DX =    0.0                 !
 ! D12   D(1,5,8,11)           -65.1794         -DE/DX =    0.0                 !
 ! D13   D(6,5,8,9)            -64.2628         -DE/DX =    0.0                 !
 ! D14   D(6,5,8,10)            50.8792         -DE/DX =    0.0                 !
 ! D15   D(6,5,8,11)           172.8495         -DE/DX =    0.0                 !
 ! D16   D(7,5,8,9)           -179.3997         -DE/DX =    0.0                 !
 ! D17   D(7,5,8,10)           -64.2577         -DE/DX =    0.0                 !
 ! D18   D(7,5,8,11)            57.7126         -DE/DX =    0.0                 !
 ! D19   D(5,8,11,12)           62.5326         -DE/DX =    0.0                 !
 ! D20   D(5,8,11,13)         -177.4405         -DE/DX =    0.0                 !
 ! D21   D(5,8,11,14)          -57.6944         -DE/DX =    0.0                 !
 ! D22   D(9,8,11,12)          -60.1837         -DE/DX =    0.0                 !
 ! D23   D(9,8,11,13)           59.8432         -DE/DX =    0.0                 !
 ! D24   D(9,8,11,14)          179.5893         -DE/DX =    0.0                 !
 ! D25   D(10,8,11,12)        -175.6253         -DE/DX =    0.0                 !
 ! D26   D(10,8,11,13)         -55.5984         -DE/DX =    0.0                 !
 ! D27   D(10,8,11,14)          64.1477         -DE/DX =    0.0                 !
 --------------------------------------------------------------------------------
 GradGradGradGradGradGradGradGradGradGradGradGradGradGradGradGradGradGrad

 1|1| IMPERIAL COLLEGE-SKRS-G08-052|Freq|RB3LYP|6-31G(d,p)|C4H10|DP1820
 |24-Aug-2021|0||#N Geom=AllCheck Guess=TCheck SCRF=Check GenChk RB3LYP
 /6-31G(d,p) Freq||C_4_13||0,1|C,-1.575731556,-0.5692904326,-0.20312184
 25|H,-1.1603096677,-1.5392596357,0.0885435012|H,-1.6473775849,-0.55578
 88544,-1.2970656777|H,-2.5939812688,-0.5167061797,0.1960136055|C,-0.72
 12852899,0.5963897096,0.3074458552|H,-1.2214755732,1.540747523,0.05695
 32775|H,-0.6735497983,0.5607266349,1.4047267819|C,0.7084660622,0.63157
 66992,-0.2569150602|H,0.6606455308,0.6781119095,-1.3537766779|H,1.1906
 254256,1.5636962699,0.0647116108|C,1.5855012718,-0.5527868115,0.164598
 7892|H,1.1883459153,-1.5057206641,-0.1996259566|H,2.6021675739,-0.4507
 645904,-0.2289601572|H,1.6579585693,-0.6205019178,1.2564720409||Versio
 n=EM64W-G09RevD.01|State=1-A|HF=-158.4706384|RMSD=4.722e-010|RMSF=1.25
 8e-005|ZeroPoint=0.1322615|Thermal=0.1379833|Dipole=-0.0002096,0.01984
 44,0.0007521|DipoleDeriv=0.0408633,-0.0486308,-0.0085804,-0.0273037,0.
 0647218,-0.0209095,0.02466,-0.0096323,0.1173224,0.032514,0.0794042,-0.
 0311836,0.0525484,-0.132776,0.0304689,-0.0373823,0.036428,0.0290896,0.
 0487622,-0.014074,0.0035805,-0.0179499,0.0267524,0.0071093,-0.0370714,
 -0.0208165,-0.1693253,-0.1740807,-0.0268842,0.0599775,-0.0098866,0.039
 2807,-0.0132108,0.0702469,-0.0101036,0.0301155,0.1336819,0.0066263,0.0
 158284,0.0392194,0.1367731,-0.0026286,0.0044052,0.0045282,0.151719,-0.
 0758225,0.080222,-0.0140749,0.0731633,-0.1576735,0.0219683,-0.0223205,
 0.0390277,0.0371273,-0.0071008,-0.0278869,-0.0239482,-0.0365409,0.0223
 422,0.0034922,0.0000407,-0.0195581,-0.1942966,0.1345906,-0.0078307,0.0
 152394,-0.0394844,0.1361007,0.0017878,0.0015207,-0.005628,0.1515062,-0
 .0083533,0.029037,-0.0218736,0.0358742,0.021149,0.0123606,0.0022488,0.
 0358801,-0.191855,-0.0729282,-0.0773713,-0.0194815,-0.0697203,-0.15479
 96,-0.0367457,-0.0268312,-0.053963,0.0313714,0.0394415,0.0486875,-0.00
 52683,0.0249163,0.0641044,0.0166861,0.0264857,0.0060424,0.1193526,0.03
 49201,-0.073716,-0.0362592,-0.0464702,-0.1291573,-0.0429999,-0.0402965
 ,-0.0490434,0.0230915,-0.1745899,0.018217,0.0614551,0.0004928,0.037913
 ,0.0149521,0.0704781,0.0120173,0.0319777,0.0481018,0.0141999,0.0045888
 ,0.0211415,0.0252692,0.0076692,-0.0361843,0.0348213,-0.1671963|Polar=4
 8.7061555,0.0492581,43.0788555,0.1368781,0.0537385,41.6986532|PG=C01 [
 X(C4H10)]|NImag=0||0.54292485,-0.04263846,0.51619791,-0.02233824,-0.02
 578676,0.55752825,-0.08851354,0.09081377,-0.02832118,0.09451963,0.0901
 3902,-0.25111438,0.06366806,-0.09831266,0.27456946,-0.02811567,0.06391
 735,-0.06919288,0.03222253,-0.06842238,0.06987525,-0.04956040,0.001199
 76,-0.01465300,-0.00136309,-0.00022056,-0.01368392,0.04962338,0.001063
 55,-0.04880742,0.00753544,0.00023461,0.00025274,0.02947841,0.00186642,
 0.05076634,-0.01479505,0.00730749,-0.30690986,0.00010584,0.00019878,-0
 .00787603,0.01764312,-0.00584036,0.33403469,-0.27464807,0.01502355,0.0
 9086341,-0.01132821,0.00069059,0.00462816,0.00321883,-0.00004838,-0.00
 094928,0.29786297,0.01579817,-0.04816624,-0.00584847,0.02682873,-0.001
 06864,-0.01211367,-0.00136569,-0.00104210,0.00074557,-0.01430398,0.051
 25189,0.09127201,-0.00556375,-0.08478778,-0.00983093,0.00013630,0.0031
 8796,0.03106585,-0.00260859,-0.01105433,-0.09920285,0.00777498,0.08760
 142,-0.11222844,-0.04377940,-0.02151141,0.00902794,0.01016517,0.005904
 55,-0.00204392,-0.00169698,-0.00087171,-0.01570183,-0.02533899,-0.0124
 2225,0.47155742,-0.04544191,-0.14739138,-0.03033141,-0.01729016,-0.022
 31683,-0.01138532,0.00080708,0.00056885,-0.00010033,0.00223520,0.00157
 733,0.00127212,-0.04269864,0.53714868,-0.02029755,-0.02972491,-0.09430
 591,0.00632406,0.00704363,0.00308166,-0.01937340,-0.02758372,-0.011269
 16,0.00690740,0.01133776,0.00411428,0.01929803,-0.02643021,0.56502310,
 0.00808910,-0.01843759,0.00485995,-0.00172768,-0.00371521,-0.00172572,
 0.00049873,0.00083801,0.00019573,0.00095604,0.00049498,0.00050165,-0.0
 9973166,0.09998675,-0.02758540,0.11319078,0.01030842,-0.02372348,0.006
 29510,-0.00368371,-0.00293466,-0.00246373,0.00037342,0.00094700,-0.000
 39863,-0.00022599,0.00090175,0.00048046,0.10024766,-0.23512384,0.05240
 402,-0.10593215,0.25748311,0.00524394,-0.01137770,0.00277623,-0.001290
 20,-0.00238812,0.00011602,0.00076637,0.00016373,0.00054490,0.00024533,
 0.00072430,0.00025613,-0.02820594,0.05286971,-0.06561475,0.03013934,-0
 .05647991,0.06607069,-0.00179725,0.00057537,-0.01949718,0.00069380,0.0
 0019884,0.00081105,-0.00162878,-0.00361361,-0.00105613,0.00029577,0.00
 071714,0.00007419,-0.04889781,0.00182848,-0.01266857,-0.00104024,0.000
 32700,-0.01520032,0.05549337,-0.00228980,0.00015125,-0.02779550,0.0009
 2560,0.00106027,0.00018577,-0.00347316,-0.00382326,-0.00225601,0.00039
 289,0.00088986,0.00068408,0.00181694,-0.05034799,0.01179148,0.00087803
 ,-0.00102533,0.02856289,0.00194342,0.05246092,-0.00104317,0.00013304,-
 0.01065958,0.00031316,-0.00031654,0.00057576,-0.00136506,-0.00190448,0
 .00091893,-0.00049026,-0.00005824,0.00046610,-0.01267504,0.01095659,-0
 .29840737,-0.00060788,0.00094674,-0.00772265,0.01279873,-0.01098544,0.
 32586488,-0.02098563,-0.00564339,0.00549558,0.00079782,0.00120235,-0.0
 0001075,0.00122474,0.00120931,0.00086118,-0.00010162,-0.00161038,-0.00
 077376,-0.16645841,-0.00134392,0.03712711,-0.01601933,-0.00136897,0.00
 729910,-0.00028916,0.00018505,0.00019409,0.46996708,-0.02638767,0.0004
 5543,0.01061962,0.00003878,0.00018325,0.00081097,0.00069934,0.00108536
 ,0.00054265,-0.00349671,-0.00454708,-0.00175528,-0.00309984,-0.0818528
 4,0.00008053,0.02706221,0.00095499,-0.01201683,-0.00123848,-0.00039441
 ,0.00095056,0.03988315,0.53485319,-0.01038239,0.00199782,0.00526266,0.
 00059920,0.00001362,0.00005043,-0.00169680,-0.00029025,0.00059261,-0.0
 0251773,-0.00292038,-0.00077321,0.03704563,0.00176961,-0.09680617,-0.0
 0893767,-0.00017791,0.00268291,0.03302050,0.00076767,-0.01378133,0.021
 93223,0.02448824,0.56890895,0.00204452,0.00073424,0.00087033,-0.000115
 61,-0.00013474,-0.00005939,-0.00015208,-0.00026342,-0.00092938,0.00024
 481,0.00033962,-0.00027789,-0.00028586,-0.00126321,0.03301812,0.001122
 80,0.00019972,-0.00062504,-0.00599045,-0.00034276,0.00276999,-0.048843
 76,-0.00084943,-0.01271744,0.05558438,0.00030191,0.00006387,0.00109951
 ,-0.00002947,0.00002467,0.00004658,-0.00010694,0.00012479,-0.00016751,
 0.00007393,-0.00003524,-0.00018204,-0.00019831,-0.00036970,0.00088712,
 -0.00015463,0.00000932,-0.00035295,0.00000087,0.00081337,0.00041212,-0
 .00083633,-0.05008359,0.00680751,-0.00283656,0.05225601,-0.00103237,-0
 .00030106,0.00075800,0.00002580,0.00002444,0.00005285,0.00075995,0.000
 74691,0.00058643,0.00002319,-0.00008498,0.00043012,0.00018791,0.000072
 45,-0.01380936,0.00033222,-0.00040273,0.00042179,0.00279023,-0.0003375
 4,0.00054088,-0.01274003,0.00764230,-0.29873956,0.01260030,-0.00952862
 ,0.32599189,-0.00536722,0.00182456,0.00393565,0.00015842,-0.00012905,0
 .00018288,0.00026974,0.00041056,0.00002039,-0.00123822,-0.00174266,-0.
 00048415,-0.01551747,-0.02661417,-0.01097269,0.00082130,0.00028894,-0.
 00077000,0.00112291,0.00015122,0.00033637,-0.09597743,-0.09505717,-0.0
 3384173,-0.00102801,-0.00085075,-0.00066054,0.10921400,-0.00015661,0.0
 0136813,0.00050080,0.00029950,0.00024056,-0.00002785,0.00007934,-0.000
 01576,-0.00002826,-0.00001768,-0.00011159,-0.00016707,0.00051437,-0.00
 045106,-0.00023229,-0.00023425,0.00103974,0.00013604,-0.00012972,-0.00
 004532,0.00037371,-0.09527101,-0.22989793,-0.06532542,0.00078260,0.001
 16262,-0.00028401,0.10062686,0.25176565,0.00179420,-0.00049721,-0.0007
 8568,-0.00011065,-0.00006719,-0.00003772,0.00031127,0.00016971,0.00039
 007,0.00043167,0.00038719,0.00053252,0.00713823,0.01193625,0.00359033,
 -0.00078751,-0.00010075,0.00037764,-0.00064383,0.00030524,0.00047620,-
 0.03447137,-0.06580387,-0.07458489,-0.01463530,-0.02817482,-0.00992153
 ,0.03673896,0.07106966,0.07574999,0.00043887,0.00026220,0.00004796,-0.
 00063064,0.00017680,-0.00007025,-0.00017621,-0.00000735,-0.00025013,0.
 00040380,0.00026780,0.00001680,-0.02159852,0.02666576,-0.00832690,-0.0
 0532941,-0.00010767,0.00178476,0.00206360,-0.00018495,-0.00105606,-0.1
 1398356,0.04754561,-0.01730235,-0.00184696,0.00234596,-0.00087267,0.00
 793016,-0.01005841,0.00427132,0.54125065,-0.00029817,0.00217041,-0.000
 21264,0.00006064,-0.00055835,0.00052215,0.00008003,0.00000295,-0.00007
 157,-0.00020929,-0.00065070,-0.00009019,0.00477172,0.00204706,-0.00244
 495,-0.00224602,0.00131326,0.00069237,-0.00076053,0.00010903,0.0002321
 8,0.04598279,-0.14983204,0.02507804,0.00090461,-0.00193422,0.00050835,
 0.01862152,-0.02380328,0.00944679,0.04475924,0.51425111,0.00002084,0.0
 0041099,-0.00044179,-0.00011391,-0.00027168,0.00046625,0.00015062,0.00
 004273,0.00013151,0.00021243,-0.00017133,0.00016894,0.00609889,-0.0107
 7600,0.00428178,0.00378954,-0.00026580,-0.00076927,0.00083465,-0.00113
 127,0.00069378,-0.01864787,0.02566237,-0.09010397,-0.02002437,0.028075
 33,-0.00852608,0.00640277,-0.00820893,0.00301515,-0.01948391,0.0220404
 4,0.56116084,-0.00062656,-0.00005305,-0.00012264,-0.00164538,-0.000056
 74,0.00009193,-0.00003450,-0.00003343,-0.00004835,0.00016333,-0.000090
 67,0.00002736,0.00082228,-0.00007264,0.00059515,0.00016225,-0.00029175
 ,-0.00013446,-0.00011876,0.00002453,0.00002846,0.00889149,0.01735967,0
 .00778439,0.00071589,-0.00095271,0.00023548,-0.00187264,0.00379700,-0.
 00105032,-0.08517934,-0.08542491,-0.03363036,0.09090054,-0.00017314,-0
 .00053762,0.00019358,-0.00000218,0.00106442,-0.00033176,0.00009108,0.0
 0000205,0.00006911,-0.00008252,0.00056940,0.00002983,-0.00118786,0.000
 22073,0.00001141,0.00011304,0.00022850,0.00008518,0.00013611,0.0000333
 1,-0.00002566,-0.00997641,-0.02237014,-0.00883977,-0.00026605,0.001023
 81,0.00035678,0.00386038,-0.00313687,0.00211368,-0.08476641,-0.2437869
 6,-0.07733029,0.09227991,0.26669615,-0.00007270,-0.00059910,0.00044159
 ,0.00008698,0.00040977,0.00005696,-0.00011415,0.00009850,-0.00019125,-
 0.00006556,0.00018492,-0.00014171,-0.00008577,-0.00079827,-0.00001010,
 0.00019127,0.00005178,-0.00002914,-0.00004819,-0.00004933,0.00004714,0
 .00494166,0.00955083,0.00327052,0.00079642,-0.00013543,0.00058841,-0.0
 0148303,0.00217956,0.00046288,-0.03336937,-0.07757355,-0.07986335,0.03
 796538,0.08383427,0.08137534,0.00040470,0.00021316,0.00022584,0.000160
 12,0.00007908,-0.00005645,-0.00004287,-0.00000190,-0.00008193,-0.00008
 501,0.00002912,-0.00000134,-0.00020430,0.00376695,-0.00229514,-0.00127
 191,-0.00003777,0.00043887,0.00025246,-0.00006971,0.00001649,-0.016143
 01,-0.00310692,0.00692706,0.00031746,-0.00036655,-0.00052037,0.0009610
 6,0.00020664,0.00027475,-0.27379573,-0.02613771,0.08920274,-0.01080355
 ,-0.00120568,0.00433100,0.29703083,-0.00024791,-0.00066649,0.00011233,
 0.00008047,0.00058466,-0.00013119,0.00001807,0.00008521,0.00000835,-0.
 00003718,0.00034638,-0.00001951,0.00175222,-0.00477445,0.00256603,0.00
 175209,-0.00005783,-0.00042483,-0.00031186,-0.00006021,0.00004851,0.02
 585283,0.00298446,-0.01131308,-0.00073270,0.00091448,0.00008307,-0.000
 53199,0.00098196,-0.00066377,-0.02694079,-0.05016874,0.01023517,-0.026
 18350,-0.00246469,0.01179861,0.02642773,0.05354937,-0.00000376,0.00002
 694,0.00018402,0.00003379,0.00002571,-0.00015375,0.00003698,-0.0000021
 3,0.00000809,-0.00000443,0.00004636,-0.00000846,-0.00067775,0.00143428
 ,-0.00044376,-0.00035466,0.00011308,0.00051230,-0.00030568,0.00013950,
 0.00044739,-0.01045496,-0.00159213,0.00314823,0.00003179,-0.00064833,0
 .00042178,0.00047132,-0.00041569,0.00016892,0.08955812,0.00995764,-0.0
 8363797,-0.01182262,-0.00075072,0.00406160,-0.09752542,-0.01227882,0.0
 8613537,-0.00017491,-0.00009473,0.00014493,-0.00003356,-0.00008290,-0.
 00011896,0.00016642,0.00004261,0.00015569,-0.00004259,-0.00002320,0.00
 003530,0.00126059,-0.00056557,-0.00175022,0.00027923,-0.00009715,0.000
 30825,-0.00015947,0.00004270,0.00078018,-0.00207923,0.00064746,-0.0199
 1290,-0.00176713,0.00360957,-0.00112910,0.00052340,-0.00043862,0.00073
 857,-0.04954670,-0.00010393,-0.01481205,-0.00137503,0.00117973,-0.0130
 7394,0.00321974,-0.00089749,0.03101728,0.04972924,0.00002260,0.,-0.000
 04966,0.00003608,0.00001283,-0.00008534,-0.00004819,-0.00014676,-0.000
 00928,0.00000557,0.00008497,0.00000866,-0.00126808,0.00106545,0.000294
 08,-0.00040528,-0.00001253,-0.00019388,0.00032696,0.00017851,-0.000763
 11,0.00173493,-0.00153864,0.02794429,0.00372805,-0.00397019,0.00150465
 ,-0.00085823,0.00090316,-0.00012093,0.00004222,-0.04915954,0.01168827,
 -0.00030171,0.00245792,-0.02895254,0.00020355,-0.00125412,0.00394433,-
 0.00321848,0.05137894,-0.00025010,0.00005686,0.00013274,-0.00004448,-0
 .00005439,-0.00020277,0.00015217,-0.00000590,0.00009339,-0.00008149,-0
 .00000402,0.00000804,0.00077663,-0.00048947,0.00057543,-0.00001087,-0.
 00000174,0.00037720,-0.00090946,0.00011845,0.00053987,-0.00075221,0.00
 082005,-0.00912718,-0.00081814,0.00186153,0.00120438,0.00012381,0.0004
 2975,0.00056611,-0.01494731,0.01191493,-0.30657583,0.00008060,0.000584
 36,-0.01006890,-0.00093611,-0.00002086,-0.01084376,0.01761696,-0.01520
 954,0.33332128||-0.00000582,0.00001001,0.00003213,0.00000156,-0.000007
 76,-0.00000371,-0.00000298,-0.00000107,-0.00000414,-0.00000722,-0.0000
 1270,-0.00000580,-0.00002219,-0.00000008,-0.00003812,-0.00000459,0.000
 00404,0.00000270,-0.00000158,-0.00000134,0.00000548,0.00001821,0.00001
 655,0.00003099,0.00000418,-0.00000485,-0.00000104,0.00001204,0.0000079
 2,0.00000052,0.00000165,0.00000285,-0.00003183,-0.00000449,-0.00000579
 ,0.00000565,0.00000713,-0.00000886,0.00000474,0.00000410,0.00000108,0.
 00000244|||@


 The chemist is a guest at the physicist's table and
 frequently dines well.
                   -- Richard Bersohn
 Job cpu time:       0 days  0 hours  3 minutes  0.0 seconds.
 File lengths (MBytes):  RWF=     20 Int=      0 D2E=      0 Chk=      2 Scr=      1
 Normal termination of Gaussian 09 at Tue Aug 24 16:42:43 2021.
