 Default is to use a total of   8 processors:
                                8 via shared-memory
                                1 via Linda
 Entering Link 1 = C:\G09W\l1.exe PID=      7496.
  
 Copyright (c) 1988,1990,1992,1993,1995,1998,2003,2009,2013,
            Gaussian, Inc.  All Rights Reserved.
  
 This is part of the Gaussian(R) 09 program.  It is based on
 the Gaussian(R) 03 system (copyright 2003, Gaussian, Inc.),
 the Gaussian(R) 98 system (copyright 1998, Gaussian, Inc.),
 the Gaussian(R) 94 system (copyright 1995, Gaussian, Inc.),
 the Gaussian 92(TM) system (copyright 1992, Gaussian, Inc.),
 the Gaussian 90(TM) system (copyright 1990, Gaussian, Inc.),
 the Gaussian 88(TM) system (copyright 1988, Gaussian, Inc.),
 the Gaussian 86(TM) system (copyright 1986, Carnegie Mellon
 University), and the Gaussian 82(TM) system (copyright 1983,
 Carnegie Mellon University). Gaussian is a federally registered
 trademark of Gaussian, Inc.
  
 This software contains proprietary and confidential information,
 including trade secrets, belonging to Gaussian, Inc.
  
 This software is provided under written license and may be
 used, copied, transmitted, or stored only in accord with that
 written license.
  
 The following legend is applicable only to US Government
 contracts under FAR:
  
                    RESTRICTED RIGHTS LEGEND
  
 Use, reproduction and disclosure by the US Government is
 subject to restrictions as set forth in subparagraphs (a)
 and (c) of the Commercial Computer Software - Restricted
 Rights clause in FAR 52.227-19.
  
 Gaussian, Inc.
 340 Quinnipiac St., Bldg. 40, Wallingford CT 06492
  
  
 ---------------------------------------------------------------
 Warning -- This program may not be used in any manner that
 competes with the business of Gaussian, Inc. or will provide
 assistance to any competitor of Gaussian, Inc.  The licensee
 of this program is prohibited from giving any competitor of
 Gaussian, Inc. access to this program.  By using this program,
 the user acknowledges that Gaussian, Inc. is engaged in the
 business of creating and licensing software in the field of
 computational chemistry and represents and warrants to the
 licensee that it is not a competitor of Gaussian, Inc. and that
 it will not use this program in any manner prohibited above.
 ---------------------------------------------------------------
  

 Cite this work as:
 Gaussian 09, Revision D.01,
 M. J. Frisch, G. W. Trucks, H. B. Schlegel, G. E. Scuseria, 
 M. A. Robb, J. R. Cheeseman, G. Scalmani, V. Barone, B. Mennucci, 
 G. A. Petersson, H. Nakatsuji, M. Caricato, X. Li, H. P. Hratchian, 
 A. F. Izmaylov, J. Bloino, G. Zheng, J. L. Sonnenberg, M. Hada, 
 M. Ehara, K. Toyota, R. Fukuda, J. Hasegawa, M. Ishida, T. Nakajima, 
 Y. Honda, O. Kitao, H. Nakai, T. Vreven, J. A. Montgomery, Jr., 
 J. E. Peralta, F. Ogliaro, M. Bearpark, J. J. Heyd, E. Brothers, 
 K. N. Kudin, V. N. Staroverov, T. Keith, R. Kobayashi, J. Normand, 
 K. Raghavachari, A. Rendell, J. C. Burant, S. S. Iyengar, J. Tomasi, 
 M. Cossi, N. Rega, J. M. Millam, M. Klene, J. E. Knox, J. B. Cross, 
 V. Bakken, C. Adamo, J. Jaramillo, R. Gomperts, R. E. Stratmann, 
 O. Yazyev, A. J. Austin, R. Cammi, C. Pomelli, J. W. Ochterski, 
 R. L. Martin, K. Morokuma, V. G. Zakrzewski, G. A. Voth, 
 P. Salvador, J. J. Dannenberg, S. Dapprich, A. D. Daniels, 
 O. Farkas, J. B. Foresman, J. V. Ortiz, J. Cioslowski, 
 and D. J. Fox, Gaussian, Inc., Wallingford CT, 2013.
 
 ******************************************
 Gaussian 09:  EM64W-G09RevD.01 13-Apr-2013
                24-Aug-2021 
 ******************************************
 %chk=\\icnas1.cc.ic.ac.uk\dp1820\Desktop\log files\alkanes\C_8_12.chk
 Default route:  MaxDisk=10GB
 ---------------------------------------------------------------------
 # opt freq b3lyp/6-31g(d,p) geom=connectivity integral=grid=ultrafine
 ---------------------------------------------------------------------
 1/14=-1,18=20,19=15,26=4,38=1,57=2/1,3;
 2/9=110,12=2,17=6,18=5,40=1/2;
 3/5=1,6=6,7=101,11=2,16=1,25=1,30=1,71=1,74=-5,75=-5/1,2,3;
 4//1;
 5/5=2,38=5/2;
 6/7=2,8=2,9=2,10=2,28=1/1;
 7//1,2,3,16;
 1/14=-1,18=20,19=15,26=4/3(2);
 2/9=110/2;
 99//99;
 2/9=110/2;
 3/5=1,6=6,7=101,11=2,16=1,25=1,30=1,71=1,74=-5,75=-5/1,2,3;
 4/5=5,16=3,69=1/1;
 5/5=2,38=5/2;
 7//1,2,3,16;
 1/14=-1,18=20,19=15,26=4/3(-5);
 2/9=110/2;
 6/7=2,8=2,9=2,10=2,19=2,28=1/1;
 99/9=1/99;
 ------
 C_8_13
 ------
 Symbolic Z-matrix:
 Charge =  0 Multiplicity = 1
 C(Iso=13)             0.00024  -0.26935  -4.4151 
 H                     0.87503  -0.88499  -4.44043 
 H                    -0.00173   0.38264  -5.26352 
 H                    -0.87227  -0.88825  -4.43887 
 C                    -0.00017   0.56911  -3.12337 
 H                    -0.87397   1.18618  -3.09896 
 H                     0.87333   1.1866   -3.09868 
 C                    -0.00014  -0.36927  -1.90228 
 H                     0.87348  -0.98659  -1.92689 
 H                    -0.87382  -0.9865   -1.92677 
 C                    -0.00001   0.46919  -0.61054 
 H                    -0.87358   1.08657  -0.58598 
 H                     0.87372   1.08636  -0.58602 
 C                    -0.00009  -0.46919   0.61054 
 H                     0.87348  -1.08658   0.58597 
 H                    -0.87382  -1.08635   0.58602 
 C                     0.00005   0.36927   1.90228 
 H                    -0.87352   0.98666   1.92685 
 H                     0.87378   0.98643   1.9268 
 C                    -0.00004  -0.56911   3.12337 
 H                     0.87353  -1.1865    3.0988 
 H                    -0.87377  -1.18628   3.09884 
 C                     0.0001    0.26935   4.4151 
 H                    -0.87347   0.88673   4.43967 
 H                     0.00004  -0.38265   5.26352 
 H                     0.87383   0.88651   4.43963 
 

 GradGradGradGradGradGradGradGradGradGradGradGradGradGradGradGradGradGrad
 Berny optimization.
 Initialization pass.
                           ----------------------------
                           !    Initial Parameters    !
                           ! (Angstroms and Degrees)  !
 --------------------------                            --------------------------
 ! Name  Definition              Value          Derivative Info.                !
 --------------------------------------------------------------------------------
 ! R1    R(1,2)                  1.07           estimate D2E/DX2                !
 ! R2    R(1,3)                  1.07           estimate D2E/DX2                !
 ! R3    R(1,4)                  1.07           estimate D2E/DX2                !
 ! R4    R(1,5)                  1.54           estimate D2E/DX2                !
 ! R5    R(5,6)                  1.07           estimate D2E/DX2                !
 ! R6    R(5,7)                  1.07           estimate D2E/DX2                !
 ! R7    R(5,8)                  1.54           estimate D2E/DX2                !
 ! R8    R(8,9)                  1.07           estimate D2E/DX2                !
 ! R9    R(8,10)                 1.07           estimate D2E/DX2                !
 ! R10   R(8,11)                 1.54           estimate D2E/DX2                !
 ! R11   R(11,12)                1.07           estimate D2E/DX2                !
 ! R12   R(11,13)                1.07           estimate D2E/DX2                !
 ! R13   R(11,14)                1.54           estimate D2E/DX2                !
 ! R14   R(14,15)                1.07           estimate D2E/DX2                !
 ! R15   R(14,16)                1.07           estimate D2E/DX2                !
 ! R16   R(14,17)                1.54           estimate D2E/DX2                !
 ! R17   R(17,18)                1.07           estimate D2E/DX2                !
 ! R18   R(17,19)                1.07           estimate D2E/DX2                !
 ! R19   R(17,20)                1.54           estimate D2E/DX2                !
 ! R20   R(20,21)                1.07           estimate D2E/DX2                !
 ! R21   R(20,22)                1.07           estimate D2E/DX2                !
 ! R22   R(20,23)                1.54           estimate D2E/DX2                !
 ! R23   R(23,24)                1.07           estimate D2E/DX2                !
 ! R24   R(23,25)                1.07           estimate D2E/DX2                !
 ! R25   R(23,26)                1.07           estimate D2E/DX2                !
 ! A1    A(2,1,3)              109.4712         estimate D2E/DX2                !
 ! A2    A(2,1,4)              109.4712         estimate D2E/DX2                !
 ! A3    A(2,1,5)              109.4712         estimate D2E/DX2                !
 ! A4    A(3,1,4)              109.4712         estimate D2E/DX2                !
 ! A5    A(3,1,5)              109.4713         estimate D2E/DX2                !
 ! A6    A(4,1,5)              109.4712         estimate D2E/DX2                !
 ! A7    A(1,5,6)              109.4712         estimate D2E/DX2                !
 ! A8    A(1,5,7)              109.4712         estimate D2E/DX2                !
 ! A9    A(1,5,8)              109.4712         estimate D2E/DX2                !
 ! A10   A(6,5,7)              109.4712         estimate D2E/DX2                !
 ! A11   A(6,5,8)              109.4713         estimate D2E/DX2                !
 ! A12   A(7,5,8)              109.4712         estimate D2E/DX2                !
 ! A13   A(5,8,9)              109.4712         estimate D2E/DX2                !
 ! A14   A(5,8,10)             109.4712         estimate D2E/DX2                !
 ! A15   A(5,8,11)             109.4712         estimate D2E/DX2                !
 ! A16   A(9,8,10)             109.4712         estimate D2E/DX2                !
 ! A17   A(9,8,11)             109.4713         estimate D2E/DX2                !
 ! A18   A(10,8,11)            109.4712         estimate D2E/DX2                !
 ! A19   A(8,11,12)            109.4712         estimate D2E/DX2                !
 ! A20   A(8,11,13)            109.4712         estimate D2E/DX2                !
 ! A21   A(8,11,14)            109.4712         estimate D2E/DX2                !
 ! A22   A(12,11,13)           109.4712         estimate D2E/DX2                !
 ! A23   A(12,11,14)           109.4713         estimate D2E/DX2                !
 ! A24   A(13,11,14)           109.4712         estimate D2E/DX2                !
 ! A25   A(11,14,15)           109.4712         estimate D2E/DX2                !
 ! A26   A(11,14,16)           109.4712         estimate D2E/DX2                !
 ! A27   A(11,14,17)           109.4712         estimate D2E/DX2                !
 ! A28   A(15,14,16)           109.4712         estimate D2E/DX2                !
 ! A29   A(15,14,17)           109.4713         estimate D2E/DX2                !
 ! A30   A(16,14,17)           109.4712         estimate D2E/DX2                !
 ! A31   A(14,17,18)           109.4712         estimate D2E/DX2                !
 ! A32   A(14,17,19)           109.4712         estimate D2E/DX2                !
 ! A33   A(14,17,20)           109.4712         estimate D2E/DX2                !
 ! A34   A(18,17,19)           109.4712         estimate D2E/DX2                !
 ! A35   A(18,17,20)           109.4713         estimate D2E/DX2                !
 ! A36   A(19,17,20)           109.4712         estimate D2E/DX2                !
 ! A37   A(17,20,21)           109.4712         estimate D2E/DX2                !
 ! A38   A(17,20,22)           109.4712         estimate D2E/DX2                !
 ! A39   A(17,20,23)           109.4712         estimate D2E/DX2                !
 ! A40   A(21,20,22)           109.4712         estimate D2E/DX2                !
 ! A41   A(21,20,23)           109.4713         estimate D2E/DX2                !
 ! A42   A(22,20,23)           109.4712         estimate D2E/DX2                !
 ! A43   A(20,23,24)           109.4712         estimate D2E/DX2                !
 ! A44   A(20,23,25)           109.4712         estimate D2E/DX2                !
 ! A45   A(20,23,26)           109.4712         estimate D2E/DX2                !
 ! A46   A(24,23,25)           109.4713         estimate D2E/DX2                !
 ! A47   A(24,23,26)           109.4712         estimate D2E/DX2                !
 ! A48   A(25,23,26)           109.4712         estimate D2E/DX2                !
 ! D1    D(2,1,5,6)            179.8889         estimate D2E/DX2                !
 ! D2    D(2,1,5,7)             59.8889         estimate D2E/DX2                !
 ! D3    D(2,1,5,8)            -60.1111         estimate D2E/DX2                !
 ! D4    D(3,1,5,6)             59.8889         estimate D2E/DX2                !
 ! D5    D(3,1,5,7)            -60.1111         estimate D2E/DX2                !
 ! D6    D(3,1,5,8)            179.8889         estimate D2E/DX2                !
 ! D7    D(4,1,5,6)            -60.1111         estimate D2E/DX2                !
 ! D8    D(4,1,5,7)            179.8889         estimate D2E/DX2                !
 ! D9    D(4,1,5,8)             59.8889         estimate D2E/DX2                !
 ! D10   D(1,5,8,9)             59.9786         estimate D2E/DX2                !
 ! D11   D(1,5,8,10)           -60.0214         estimate D2E/DX2                !
 ! D12   D(1,5,8,11)           179.9786         estimate D2E/DX2                !
 ! D13   D(6,5,8,9)            179.9786         estimate D2E/DX2                !
 ! D14   D(6,5,8,10)            59.9786         estimate D2E/DX2                !
 ! D15   D(6,5,8,11)           -60.0214         estimate D2E/DX2                !
 ! D16   D(7,5,8,9)            -60.0214         estimate D2E/DX2                !
 ! D17   D(7,5,8,10)           179.9786         estimate D2E/DX2                !
 ! D18   D(7,5,8,11)            59.9786         estimate D2E/DX2                !
 ! D19   D(5,8,11,12)           59.9953         estimate D2E/DX2                !
 ! D20   D(5,8,11,13)          -60.0047         estimate D2E/DX2                !
 ! D21   D(5,8,11,14)          179.9953         estimate D2E/DX2                !
 ! D22   D(9,8,11,12)          179.9953         estimate D2E/DX2                !
 ! D23   D(9,8,11,13)           59.9953         estimate D2E/DX2                !
 ! D24   D(9,8,11,14)          -60.0047         estimate D2E/DX2                !
 ! D25   D(10,8,11,12)         -60.0047         estimate D2E/DX2                !
 ! D26   D(10,8,11,13)         179.9953         estimate D2E/DX2                !
 ! D27   D(10,8,11,14)          59.9953         estimate D2E/DX2                !
 ! D28   D(8,11,14,15)          59.9994         estimate D2E/DX2                !
 ! D29   D(8,11,14,16)         -60.0005         estimate D2E/DX2                !
 ! D30   D(8,11,14,17)         179.9995         estimate D2E/DX2                !
 ! D31   D(12,11,14,15)        179.9994         estimate D2E/DX2                !
 ! D32   D(12,11,14,16)         59.9994         estimate D2E/DX2                !
 ! D33   D(12,11,14,17)        -60.0006         estimate D2E/DX2                !
 ! D34   D(13,11,14,15)        -60.0006         estimate D2E/DX2                !
 ! D35   D(13,11,14,16)        179.9995         estimate D2E/DX2                !
 ! D36   D(13,11,14,17)         59.9995         estimate D2E/DX2                !
 ! D37   D(11,14,17,18)         59.9999         estimate D2E/DX2                !
 ! D38   D(11,14,17,19)        -60.0001         estimate D2E/DX2                !
 ! D39   D(11,14,17,20)        179.9999         estimate D2E/DX2                !
 ! D40   D(15,14,17,18)        179.9999         estimate D2E/DX2                !
 ! D41   D(15,14,17,19)         59.9999         estimate D2E/DX2                !
 ! D42   D(15,14,17,20)        -60.0001         estimate D2E/DX2                !
 ! D43   D(16,14,17,18)        -60.0001         estimate D2E/DX2                !
 ! D44   D(16,14,17,19)        179.9999         estimate D2E/DX2                !
 ! D45   D(16,14,17,20)         59.9999         estimate D2E/DX2                !
 ! D46   D(14,17,20,21)         60.0001         estimate D2E/DX2                !
 ! D47   D(14,17,20,22)        -59.9999         estimate D2E/DX2                !
 ! D48   D(14,17,20,23)       -179.9999         estimate D2E/DX2                !
 ! D49   D(18,17,20,21)       -179.9999         estimate D2E/DX2                !
 ! D50   D(18,17,20,22)         60.0001         estimate D2E/DX2                !
 ! D51   D(18,17,20,23)        -59.9999         estimate D2E/DX2                !
 ! D52   D(19,17,20,21)        -59.9999         estimate D2E/DX2                !
 ! D53   D(19,17,20,22)       -179.9999         estimate D2E/DX2                !
 ! D54   D(19,17,20,23)         60.0001         estimate D2E/DX2                !
 ! D55   D(17,20,23,24)         60.0001         estimate D2E/DX2                !
 ! D56   D(17,20,23,25)       -179.9999         estimate D2E/DX2                !
 ! D57   D(17,20,23,26)        -59.9999         estimate D2E/DX2                !
 ! D58   D(21,20,23,24)       -179.9999         estimate D2E/DX2                !
 ! D59   D(21,20,23,25)        -59.9999         estimate D2E/DX2                !
 ! D60   D(21,20,23,26)         60.0001         estimate D2E/DX2                !
 ! D61   D(22,20,23,24)        -59.9999         estimate D2E/DX2                !
 ! D62   D(22,20,23,25)         60.0001         estimate D2E/DX2                !
 ! D63   D(22,20,23,26)       -179.9999         estimate D2E/DX2                !
 --------------------------------------------------------------------------------
 Trust Radius=3.00D-01 FncErr=1.00D-07 GrdErr=1.00D-06
 Number of steps in this run=    146 maximum allowed number of steps=    156.
 GradGradGradGradGradGradGradGradGradGradGradGradGradGradGradGradGradGrad

                          Input orientation:                          
 ---------------------------------------------------------------------
 Center     Atomic      Atomic             Coordinates (Angstroms)
 Number     Number       Type             X           Y           Z
 ---------------------------------------------------------------------
      1          6           0        0.000244   -0.269345   -4.415105
      2          1           0        0.875026   -0.884987   -4.440432
      3          1           0       -0.001734    0.382642   -5.263520
      4          1           0       -0.872273   -0.888255   -4.438869
      5          6           0       -0.000168    0.569111   -3.123365
      6          1           0       -0.873974    1.186176   -3.098960
      7          1           0        0.873329    1.186601   -3.098679
      8          6           0       -0.000136   -0.369267   -1.902281
      9          1           0        0.873481   -0.986590   -1.926886
     10          1           0       -0.873821   -0.986498   -1.926769
     11          6           0       -0.000006    0.469189   -0.610542
     12          1           0       -0.873582    1.086572   -0.585977
     13          1           0        0.873720    1.086361   -0.586015
     14          6           0       -0.000093   -0.469189    0.610542
     15          1           0        0.873479   -1.086578    0.585971
     16          1           0       -0.873824   -1.086354    0.586020
     17          6           0        0.000051    0.369267    1.902281
     18          1           0       -0.873520    0.986658    1.926850
     19          1           0        0.873783    0.986431    1.926804
     20          6           0       -0.000038   -0.569111    3.123365
     21          1           0        0.873533   -1.186500    3.098796
     22          1           0       -0.873769   -1.186276    3.098842
     23          6           0        0.000103    0.269345    4.415105
     24          1           0       -0.873469    0.886733    4.439673
     25          1           0        0.000043   -0.382645    5.263520
     26          1           0        0.873833    0.886511    4.439627
 ---------------------------------------------------------------------
                    Distance matrix (angstroms):
                    1          2          3          4          5
     1  C    0.000000
     2  H    1.070000   0.000000
     3  H    1.070000   1.747302   0.000000
     4  H    1.070000   1.747303   1.747303   0.000000
     5  C    1.540000   2.148263   2.148263   2.148263   0.000000
     6  H    2.148263   3.024609   2.468154   2.469538   1.070000
     7  H    2.148263   2.468154   2.469539   3.024610   1.070000
     8  C    2.514809   2.733877   3.444313   2.732078   1.540000
     9  H    2.732804   2.515599   3.711324   3.060619   2.148263
    10  H    2.733151   3.063866   3.710659   2.514021   2.148263
    11  C    3.875581   4.155422   4.653783   4.154467   2.514809
    12  H    4.155033   4.669207   4.809890   4.329517   2.732939
    13  H    4.154856   4.329289   4.810477   4.668199   2.733015
    14  C    5.029618   5.143059   5.935505   5.141290   3.875581
    15  H    5.142098   5.030445   6.094354   5.323157   4.154966
    16  H    5.142251   5.325810   6.093900   5.028793   4.154923
    17  C    6.349582   6.524473   7.165814   6.523228   5.029618
    18  H    6.523910   6.863144   7.268168   6.636089   5.142156
    19  H    6.523791   6.636558   7.268552   6.861847   5.142194
    20  C    7.544428   7.620797   8.440716   7.619057   6.349582
    21  H    7.619876   7.545255   8.553165   7.742945   6.523865
    22  H    7.619977   7.745303   8.552838   7.543600   6.523835
    23  C    8.846625   8.973210   9.679288   8.971841   7.544428
    24  H    8.972568   9.222391   9.755306   9.054231   7.619914
    25  H    9.679288   9.756261  10.554821   9.754636   8.440716
    26  H    8.972482   9.055035   9.755592   9.220975   7.619939
                    6          7          8          9         10
     6  H    0.000000
     7  H    1.747303   0.000000
     8  C    2.148263   2.148263   0.000000
     9  H    3.024610   2.468979   1.070000   0.000000
    10  H    2.468713   3.024610   1.070000   1.747303   0.000000
    11  C    2.733151   2.732804   1.540000   2.148263   2.148263
    12  H    2.514956   3.061923   2.148263   3.024610   2.468875
    13  H    3.062563   2.514662   2.148263   2.468817   3.024610
    14  C    4.155034   4.154855   2.514809   2.733016   2.732939
    15  H    4.668803   4.329433   2.732973   2.514846   3.062179
    16  H    4.329373   4.668605   2.732982   3.062307   2.514773
    17  C    5.142342   5.142008   3.875581   4.154967   4.154922
    18  H    5.029769   5.324227   4.154946   4.668726   4.329402
    19  H    5.324740   5.029468   4.154942   4.329404   4.668682
    20  C    6.523966   6.523735   5.029618   5.142214   5.142136
    21  H    6.862620   6.636287   5.142173   5.029657   5.324430
    22  H    6.636360   6.862373   5.142176   5.324538   5.029580
    23  C    7.620089   7.619765   6.349582   6.523880   6.523822
    24  H    7.544579   7.743899   6.523851   6.862525   6.636308
    25  H    8.553139   8.552867   7.165814   7.268396   7.268324
    26  H    7.744348   7.544277   6.523849   6.636339   6.862468
                   11         12         13         14         15
    11  C    0.000000
    12  H    1.070000   0.000000
    13  H    1.070000   1.747303   0.000000
    14  C    1.540000   2.148263   2.148263   0.000000
    15  H    2.148263   3.024610   2.468849   1.070000   0.000000
    16  H    2.148263   2.468843   3.024610   1.070000   1.747303
    17  C    2.514809   2.732982   2.732973   1.540000   2.148263
    18  H    2.732976   2.514813   3.062235   2.148263   3.024610
    19  H    2.732978   3.062251   2.514805   2.148263   2.468846
    20  C    3.875581   4.154947   4.154942   2.514809   2.732979
    21  H    4.154945   4.668707   4.329403   2.732978   2.514811
    22  H    4.154944   4.329403   4.668701   2.732977   3.062243
    23  C    5.029618   5.142179   5.142171   3.875581   4.154946
    24  H    5.142174   5.029622   5.324478   4.154944   4.668705
    25  H    5.935506   6.094131   6.094124   4.653783   4.810185
    26  H    5.142175   5.324489   5.029615   4.154945   4.329405
                   16         17         18         19         20
    16  H    0.000000
    17  C    2.148263   0.000000
    18  H    2.468846   1.070000   0.000000
    19  H    3.024610   1.070000   1.747303   0.000000
    20  C    2.732976   1.540000   2.148263   2.148263   0.000000
    21  H    3.062242   2.148263   3.024610   2.468845   1.070000
    22  H    2.514807   2.148263   2.468847   3.024610   1.070000
    23  C    4.154943   2.514809   2.732977   2.732978   1.540000
    24  H    4.329401   2.732978   2.514809   3.062245   2.148263
    25  H    4.810182   3.444314   3.710993   3.710992   2.148263
    26  H    4.668703   2.732977   3.062241   2.514809   2.148263
                   21         22         23         24         25
    21  H    0.000000
    22  H    1.747303   0.000000
    23  C    2.148263   2.148263   0.000000
    24  H    3.024610   2.468845   1.070000   0.000000
    25  H    2.468846   2.468846   1.070000   1.747303   0.000000
    26  H    2.468847   3.024610   1.070000   1.747303   1.747303
                   26
    26  H    0.000000
 Stoichiometry    C8H18
 Framework group  C1[X(C8H18)]
 Deg. of freedom    72
 Full point group                 C1      NOp   1
 Largest Abelian subgroup         C1      NOp   1
 Largest concise Abelian subgroup C1      NOp   1
                         Standard orientation:                         
 ---------------------------------------------------------------------
 Center     Atomic      Atomic             Coordinates (Angstroms)
 Number     Number       Type             X           Y           Z
 ---------------------------------------------------------------------
      1          6           0       -4.415105    0.269345    0.000244
      2          1           0       -4.440432    0.884987    0.875026
      3          1           0       -5.263520   -0.382642   -0.001734
      4          1           0       -4.438869    0.888255   -0.872273
      5          6           0       -3.123365   -0.569111   -0.000168
      6          1           0       -3.098960   -1.186176   -0.873974
      7          1           0       -3.098679   -1.186601    0.873329
      8          6           0       -1.902281    0.369267   -0.000136
      9          1           0       -1.926886    0.986590    0.873481
     10          1           0       -1.926769    0.986498   -0.873821
     11          6           0       -0.610542   -0.469189   -0.000006
     12          1           0       -0.585977   -1.086572   -0.873582
     13          1           0       -0.586015   -1.086361    0.873720
     14          6           0        0.610542    0.469189   -0.000093
     15          1           0        0.585971    1.086578    0.873479
     16          1           0        0.586020    1.086354   -0.873824
     17          6           0        1.902281   -0.369267    0.000051
     18          1           0        1.926850   -0.986658   -0.873520
     19          1           0        1.926804   -0.986431    0.873783
     20          6           0        3.123365    0.569111   -0.000038
     21          1           0        3.098796    1.186500    0.873533
     22          1           0        3.098842    1.186276   -0.873769
     23          6           0        4.415105   -0.269345    0.000103
     24          1           0        4.439673   -0.886733   -0.873469
     25          1           0        5.263520    0.382645    0.000043
     26          1           0        4.439627   -0.886511    0.873833
 ---------------------------------------------------------------------
 Rotational constants (GHZ):     10.4698513      0.4955566      0.4843230
 Standard basis: 6-31G(d,p) (6D, 7F)
 There are   210 symmetry adapted cartesian basis functions of A   symmetry.
 There are   210 symmetry adapted basis functions of A   symmetry.
   210 basis functions,   350 primitive gaussians,   210 cartesian basis functions
    33 alpha electrons       33 beta electrons
       nuclear repulsion energy       378.3578328515 Hartrees.
 NAtoms=   26 NActive=   26 NUniq=   26 SFac= 1.00D+00 NAtFMM=   60 NAOKFM=F Big=F
 Integral buffers will be    131072 words long.
 Raffenetti 2 integral format.
 Two-electron integral symmetry is turned on.
 One-electron integrals computed using PRISM.
 NBasis=   210 RedAO= T EigKep=  2.39D-03  NBF=   210
 NBsUse=   210 1.00D-06 EigRej= -1.00D+00 NBFU=   210
 ExpMin= 1.61D-01 ExpMax= 3.05D+03 ExpMxC= 4.57D+02 IAcc=3 IRadAn=         5 AccDes= 0.00D+00
 Harris functional with IExCor=  402 and IRadAn=       5 diagonalized for initial guess.
 HarFok:  IExCor=  402 AccDes= 0.00D+00 IRadAn=         5 IDoV= 1 UseB2=F ITyADJ=14
 ICtDFT=  3500011 ScaDFX=  1.000000  1.000000  1.000000  1.000000
 FoFCou: FMM=F IPFlag=           0 FMFlag=      100000 FMFlg1=           0
         NFxFlg=           0 DoJE=T BraDBF=F KetDBF=T FulRan=T
         wScrn=  0.000000 ICntrl=     500 IOpCl=  0 I1Cent=   200000004 NGrid=           0
         NMat0=    1 NMatS0=      1 NMatT0=    0 NMatD0=    1 NMtDS0=    0 NMtDT0=    0
 Petite list used in FoFCou.
 Keep R1 ints in memory in canonical form, NReq=250284088.
 Requested convergence on RMS density matrix=1.00D-08 within 128 cycles.
 Requested convergence on MAX density matrix=1.00D-06.
 Requested convergence on             energy=1.00D-06.
 No special actions if energy rises.
 Integral accuracy reduced to 1.0D-05 until final iterations.
 Initial convergence to 1.0D-05 achieved.  Increase integral accuracy.
 SCF Done:  E(RB3LYP) =  -315.723599711     A.U. after   11 cycles
            NFock= 11  Conv=0.72D-08     -V/T= 2.0081

 **********************************************************************

            Population analysis using the SCF density.

 **********************************************************************

 Orbital symmetries:
       Occupied  (A) (A) (A) (A) (A) (A) (A) (A) (A) (A) (A) (A)
                 (A) (A) (A) (A) (A) (A) (A) (A) (A) (A) (A) (A)
                 (A) (A) (A) (A) (A) (A) (A) (A) (A)
       Virtual   (A) (A) (A) (A) (A) (A) (A) (A) (A) (A) (A) (A)
                 (A) (A) (A) (A) (A) (A) (A) (A) (A) (A) (A) (A)
                 (A) (A) (A) (A) (A) (A) (A) (A) (A) (A) (A) (A)
                 (A) (A) (A) (A) (A) (A) (A) (A) (A) (A) (A) (A)
                 (A) (A) (A) (A) (A) (A) (A) (A) (A) (A) (A) (A)
                 (A) (A) (A) (A) (A) (A) (A) (A) (A) (A) (A) (A)
                 (A) (A) (A) (A) (A) (A) (A) (A) (A) (A) (A) (A)
                 (A) (A) (A) (A) (A) (A) (A) (A) (A) (A) (A) (A)
                 (A) (A) (A) (A) (A) (A) (A) (A) (A) (A) (A) (A)
                 (A) (A) (A) (A) (A) (A) (A) (A) (A) (A) (A) (A)
                 (A) (A) (A) (A) (A) (A) (A) (A) (A) (A) (A) (A)
                 (A) (A) (A) (A) (A) (A) (A) (A) (A) (A) (A) (A)
                 (A) (A) (A) (A) (A) (A) (A) (A) (A) (A) (A) (A)
                 (A) (A) (A) (A) (A) (A) (A) (A) (A) (A) (A) (A)
                 (A) (A) (A) (A) (A) (A) (A) (A) (A)
 The electronic state is 1-A.
 Alpha  occ. eigenvalues --  -10.16622 -10.16622 -10.16390 -10.16389 -10.16357
 Alpha  occ. eigenvalues --  -10.16338 -10.15903 -10.15903  -0.80681  -0.78279
 Alpha  occ. eigenvalues --   -0.74415  -0.69379  -0.63695  -0.58843  -0.57800
 Alpha  occ. eigenvalues --   -0.57178  -0.48660  -0.46482  -0.43195  -0.42976
 Alpha  occ. eigenvalues --   -0.41370  -0.39823  -0.39399  -0.37807  -0.35919
 Alpha  occ. eigenvalues --   -0.34633  -0.33617  -0.33476  -0.32794  -0.32766
 Alpha  occ. eigenvalues --   -0.32760  -0.32132  -0.27350
 Alpha virt. eigenvalues --    0.09074   0.10228   0.11850   0.12505   0.13544
 Alpha virt. eigenvalues --    0.15183   0.15427   0.16282   0.17902   0.19043
 Alpha virt. eigenvalues --    0.19123   0.20170   0.20446   0.20461   0.20761
 Alpha virt. eigenvalues --    0.21144   0.22006   0.22771   0.22783   0.23117
 Alpha virt. eigenvalues --    0.25221   0.25566   0.27328   0.30979   0.31132
 Alpha virt. eigenvalues --    0.46777   0.50180   0.51024   0.53420   0.54331
 Alpha virt. eigenvalues --    0.54948   0.56498   0.56728   0.58445   0.58729
 Alpha virt. eigenvalues --    0.61293   0.62902   0.66815   0.67637   0.69762
 Alpha virt. eigenvalues --    0.71619   0.71999   0.75051   0.76572   0.79936
 Alpha virt. eigenvalues --    0.81030   0.83189   0.84464   0.84814   0.86988
 Alpha virt. eigenvalues --    0.88118   0.90097   0.90502   0.90550   0.92990
 Alpha virt. eigenvalues --    0.94259   0.95152   0.95218   0.95898   0.96135
 Alpha virt. eigenvalues --    0.96287   0.97495   0.99119   0.99455   1.01124
 Alpha virt. eigenvalues --    1.01778   1.02458   1.17996   1.26597   1.28023
 Alpha virt. eigenvalues --    1.28883   1.34711   1.37017   1.43399   1.45003
 Alpha virt. eigenvalues --    1.47073   1.51211   1.54665   1.55424   1.64049
 Alpha virt. eigenvalues --    1.67215   1.69050   1.69123   1.69254   1.70345
 Alpha virt. eigenvalues --    1.71473   1.71648   1.83966   1.84096   1.86417
 Alpha virt. eigenvalues --    1.87958   1.90189   1.90364   1.95946   1.96857
 Alpha virt. eigenvalues --    1.97665   2.05729   2.05824   2.07844   2.09582
 Alpha virt. eigenvalues --    2.09782   2.10530   2.11131   2.13029   2.13512
 Alpha virt. eigenvalues --    2.14149   2.15523   2.20501   2.21374   2.25291
 Alpha virt. eigenvalues --    2.25910   2.26229   2.28163   2.30423   2.31244
 Alpha virt. eigenvalues --    2.32630   2.33721   2.33869   2.35214   2.39119
 Alpha virt. eigenvalues --    2.43846   2.44703   2.45618   2.48884   2.49417
 Alpha virt. eigenvalues --    2.50958   2.54979   2.57684   2.67980   2.68744
 Alpha virt. eigenvalues --    2.69204   2.69221   2.70860   2.73656   2.74947
 Alpha virt. eigenvalues --    2.76311   2.80449   2.83996   2.87883   2.88744
 Alpha virt. eigenvalues --    2.92193   2.92786   2.93414   2.95931   2.95970
 Alpha virt. eigenvalues --    2.96039   2.97055   2.97780   2.97892   2.99824
 Alpha virt. eigenvalues --    3.00034   3.26278   3.27942   3.30995   3.33089
 Alpha virt. eigenvalues --    3.33839   3.35282   3.37378   3.38626   3.41345
 Alpha virt. eigenvalues --    3.45354   3.48110   3.53080   3.53499   3.55797
 Alpha virt. eigenvalues --    3.59558   3.62327   3.63337   3.63584   4.25722
 Alpha virt. eigenvalues --    4.33389   4.41491   4.48924   4.55139   4.61577
 Alpha virt. eigenvalues --    4.69782   4.80703
          Condensed to atoms (all electrons):
               1          2          3          4          5          6
     1  C    4.918385   0.392168   0.379523   0.392178   0.363819  -0.038726
     2  H    0.392168   0.606644  -0.031817  -0.033263  -0.035894   0.005817
     3  H    0.379523  -0.031817   0.618000  -0.031821  -0.029265  -0.002984
     4  H    0.392178  -0.033263  -0.031821   0.606665  -0.035936  -0.005272
     5  C    0.363819  -0.035894  -0.029265  -0.035936   4.882500   0.391045
     6  H   -0.038726   0.005817  -0.002984  -0.005272   0.391045   0.635271
     7  H   -0.038718  -0.005317  -0.002942   0.005818   0.391045  -0.039428
     8  C   -0.046458  -0.005798   0.004696  -0.005830   0.378571  -0.039041
     9  H   -0.003799   0.005279   0.000008  -0.000566  -0.039956   0.006303
    10  H   -0.003824  -0.000564   0.000008   0.005296  -0.039920  -0.006264
    11  C    0.004418   0.000087  -0.000198   0.000088  -0.040565  -0.004327
    12  H    0.000066   0.000008   0.000003   0.000002  -0.004335   0.005049
    13  H    0.000066   0.000002   0.000003   0.000008  -0.004337  -0.000579
    14  C   -0.000175   0.000001   0.000002   0.000001   0.004264   0.000075
    15  H    0.000002  -0.000003   0.000000   0.000001   0.000065   0.000005
    16  H    0.000002   0.000001   0.000000  -0.000003   0.000065   0.000005
    17  C    0.000002   0.000000   0.000000   0.000000  -0.000165   0.000002
    18  H    0.000000   0.000000   0.000000   0.000000   0.000002  -0.000003
    19  H    0.000000   0.000000   0.000000   0.000000   0.000002   0.000001
    20  C    0.000000   0.000000   0.000000   0.000000   0.000001   0.000000
    21  H    0.000000   0.000000   0.000000   0.000000   0.000000   0.000000
    22  H    0.000000   0.000000   0.000000   0.000000   0.000000   0.000000
    23  C    0.000000   0.000000   0.000000   0.000000   0.000000   0.000000
    24  H    0.000000   0.000000   0.000000   0.000000   0.000000   0.000000
    25  H    0.000000   0.000000   0.000000   0.000000   0.000000   0.000000
    26  H    0.000000   0.000000   0.000000   0.000000   0.000000   0.000000
               7          8          9         10         11         12
     1  C   -0.038718  -0.046458  -0.003799  -0.003824   0.004418   0.000066
     2  H   -0.005317  -0.005798   0.005279  -0.000564   0.000087   0.000008
     3  H   -0.002942   0.004696   0.000008   0.000008  -0.000198   0.000003
     4  H    0.005818  -0.005830  -0.000566   0.005296   0.000088   0.000002
     5  C    0.391045   0.378571  -0.039956  -0.039920  -0.040565  -0.004335
     6  H   -0.039428  -0.039041   0.006303  -0.006264  -0.004327   0.005049
     7  H    0.635277  -0.039061  -0.006257   0.006303  -0.004328  -0.000580
     8  C   -0.039061   4.897114   0.388177   0.388164   0.371050  -0.038559
     9  H   -0.006257   0.388177   0.639633  -0.040516  -0.038445   0.006268
    10  H    0.006303   0.388164  -0.040516   0.639617  -0.038437  -0.006206
    11  C   -0.004328   0.371050  -0.038445  -0.038437   4.906245   0.387774
    12  H   -0.000580  -0.038559   0.006268  -0.006206   0.387774   0.639210
    13  H    0.005052  -0.038559  -0.006208   0.006268   0.387777  -0.040333
    14  C    0.000075  -0.040459  -0.004213  -0.004216   0.368653  -0.038553
    15  H    0.000005  -0.004285   0.004971  -0.000568  -0.038553   0.006260
    16  H    0.000005  -0.004286  -0.000568   0.004972  -0.038554  -0.006205
    17  C    0.000002   0.004244   0.000077   0.000077  -0.040459  -0.004286
    18  H    0.000001   0.000077   0.000005   0.000006  -0.004214   0.004971
    19  H   -0.000003   0.000077   0.000006   0.000005  -0.004214  -0.000568
    20  C    0.000000  -0.000165   0.000002   0.000002   0.004264   0.000065
    21  H    0.000000   0.000002  -0.000003   0.000001   0.000075   0.000005
    22  H    0.000000   0.000002   0.000001  -0.000003   0.000075   0.000005
    23  C    0.000000   0.000002   0.000000   0.000000  -0.000175   0.000002
    24  H    0.000000   0.000000   0.000000   0.000000   0.000001  -0.000003
    25  H    0.000000   0.000000   0.000000   0.000000   0.000002   0.000000
    26  H    0.000000   0.000000   0.000000   0.000000   0.000001   0.000001
              13         14         15         16         17         18
     1  C    0.000066  -0.000175   0.000002   0.000002   0.000002   0.000000
     2  H    0.000002   0.000001  -0.000003   0.000001   0.000000   0.000000
     3  H    0.000003   0.000002   0.000000   0.000000   0.000000   0.000000
     4  H    0.000008   0.000001   0.000001  -0.000003   0.000000   0.000000
     5  C   -0.004337   0.004264   0.000065   0.000065  -0.000165   0.000002
     6  H   -0.000579   0.000075   0.000005   0.000005   0.000002  -0.000003
     7  H    0.005052   0.000075   0.000005   0.000005   0.000002   0.000001
     8  C   -0.038559  -0.040459  -0.004285  -0.004286   0.004244   0.000077
     9  H   -0.006208  -0.004213   0.004971  -0.000568   0.000077   0.000005
    10  H    0.006268  -0.004216  -0.000568   0.004972   0.000077   0.000006
    11  C    0.387777   0.368653  -0.038553  -0.038554  -0.040459  -0.004214
    12  H   -0.040333  -0.038553   0.006260  -0.006205  -0.004286   0.004971
    13  H    0.639209  -0.038553  -0.006205   0.006260  -0.004286  -0.000568
    14  C   -0.038553   4.906245   0.387775   0.387776   0.371050  -0.038441
    15  H   -0.006205   0.387775   0.639209  -0.040333  -0.038559   0.006268
    16  H    0.006260   0.387776  -0.040333   0.639210  -0.038559  -0.006207
    17  C   -0.004286   0.371050  -0.038559  -0.038559   4.897114   0.388170
    18  H   -0.000568  -0.038441   0.006268  -0.006207   0.388170   0.639625
    19  H    0.004971  -0.038441  -0.006207   0.006268   0.388170  -0.040516
    20  C    0.000065  -0.040565  -0.004336  -0.004336   0.378571  -0.039938
    21  H    0.000005  -0.004328   0.005051  -0.000579  -0.039051   0.006303
    22  H    0.000005  -0.004328  -0.000579   0.005051  -0.039051  -0.006260
    23  C    0.000002   0.004418   0.000066   0.000066  -0.046458  -0.003811
    24  H    0.000001   0.000088   0.000008   0.000002  -0.005814   0.005288
    25  H    0.000000  -0.000198   0.000003   0.000003   0.004696   0.000008
    26  H   -0.000003   0.000088   0.000002   0.000008  -0.005814  -0.000565
              19         20         21         22         23         24
     1  C    0.000000   0.000000   0.000000   0.000000   0.000000   0.000000
     2  H    0.000000   0.000000   0.000000   0.000000   0.000000   0.000000
     3  H    0.000000   0.000000   0.000000   0.000000   0.000000   0.000000
     4  H    0.000000   0.000000   0.000000   0.000000   0.000000   0.000000
     5  C    0.000002   0.000001   0.000000   0.000000   0.000000   0.000000
     6  H    0.000001   0.000000   0.000000   0.000000   0.000000   0.000000
     7  H   -0.000003   0.000000   0.000000   0.000000   0.000000   0.000000
     8  C    0.000077  -0.000165   0.000002   0.000002   0.000002   0.000000
     9  H    0.000006   0.000002  -0.000003   0.000001   0.000000   0.000000
    10  H    0.000005   0.000002   0.000001  -0.000003   0.000000   0.000000
    11  C   -0.004214   0.004264   0.000075   0.000075  -0.000175   0.000001
    12  H   -0.000568   0.000065   0.000005   0.000005   0.000002  -0.000003
    13  H    0.004971   0.000065   0.000005   0.000005   0.000002   0.000001
    14  C   -0.038441  -0.040565  -0.004328  -0.004328   0.004418   0.000088
    15  H   -0.006207  -0.004336   0.005051  -0.000579   0.000066   0.000008
    16  H    0.006268  -0.004336  -0.000579   0.005051   0.000066   0.000002
    17  C    0.388170   0.378571  -0.039051  -0.039051  -0.046458  -0.005814
    18  H   -0.040516  -0.039938   0.006303  -0.006260  -0.003811   0.005288
    19  H    0.639625  -0.039938  -0.006261   0.006303  -0.003811  -0.000565
    20  C   -0.039938   4.882500   0.391045   0.391045   0.363819  -0.035915
    21  H   -0.006261   0.391045   0.635274  -0.039428  -0.038722   0.005818
    22  H    0.006303   0.391045  -0.039428   0.635274  -0.038722  -0.005294
    23  C   -0.003811   0.363819  -0.038722  -0.038722   4.918385   0.392173
    24  H   -0.000565  -0.035915   0.005818  -0.005294   0.392173   0.606654
    25  H    0.000008  -0.029265  -0.002963  -0.002963   0.379523  -0.031819
    26  H    0.005288  -0.035915  -0.005294   0.005818   0.392173  -0.033263
              25         26
     1  C    0.000000   0.000000
     2  H    0.000000   0.000000
     3  H    0.000000   0.000000
     4  H    0.000000   0.000000
     5  C    0.000000   0.000000
     6  H    0.000000   0.000000
     7  H    0.000000   0.000000
     8  C    0.000000   0.000000
     9  H    0.000000   0.000000
    10  H    0.000000   0.000000
    11  C    0.000002   0.000001
    12  H    0.000000   0.000001
    13  H    0.000000  -0.000003
    14  C   -0.000198   0.000088
    15  H    0.000003   0.000002
    16  H    0.000003   0.000008
    17  C    0.004696  -0.005814
    18  H    0.000008  -0.000565
    19  H    0.000008   0.005288
    20  C   -0.029265  -0.035915
    21  H   -0.002963  -0.005294
    22  H   -0.002963   0.005818
    23  C    0.379523   0.392173
    24  H   -0.031819  -0.033263
    25  H    0.618000  -0.031819
    26  H   -0.031819   0.606655
 Mulliken charges:
               1
     1  C   -0.318930
     2  H    0.102649
     3  H    0.096784
     4  H    0.102634
     5  C   -0.181005
     6  H    0.093049
     7  H    0.093050
     8  C   -0.169671
     9  H    0.089802
    10  H    0.089802
    11  C   -0.178039
    12  H    0.089938
    13  H    0.089937
    14  C   -0.178039
    15  H    0.089938
    16  H    0.089937
    17  C   -0.169671
    18  H    0.089802
    19  H    0.089802
    20  C   -0.181005
    21  H    0.093049
    22  H    0.093049
    23  C   -0.318930
    24  H    0.102642
    25  H    0.096784
    26  H    0.102642
 Sum of Mulliken charges =   0.00000
 Mulliken charges with hydrogens summed into heavy atoms:
               1
     1  C   -0.016862
     5  C    0.005094
     8  C    0.009932
    11  C    0.001836
    14  C    0.001836
    17  C    0.009932
    20  C    0.005094
    23  C   -0.016862
 Electronic spatial extent (au):  <R**2>=           2360.5530
 Charge=              0.0000 electrons
 Dipole moment (field-independent basis, Debye):
    X=              0.0000    Y=              0.0000    Z=              0.0000  Tot=              0.0000
 Quadrupole moment (field-independent basis, Debye-Ang):
   XX=            -57.1728   YY=            -54.8127   ZZ=            -52.8919
   XY=              0.5555   XZ=             -0.0001   YZ=              0.0000
 Traceless Quadrupole moment (field-independent basis, Debye-Ang):
   XX=             -2.2137   YY=              0.1464   ZZ=              2.0672
   XY=              0.5555   XZ=             -0.0001   YZ=              0.0000
 Octapole moment (field-independent basis, Debye-Ang**2):
  XXX=              0.0000  YYY=              0.0000  ZZZ=              0.0026  XYY=              0.0000
  XXY=              0.0000  XXZ=             -0.0016  XZZ=              0.0000  YZZ=              0.0000
  YYZ=             -0.0017  XYZ=             -0.0005
 Hexadecapole moment (field-independent basis, Debye-Ang**3):
 XXXX=          -3071.1670 YYYY=           -189.4632 ZZZZ=           -108.2615 XXXY=             30.7780
 XXXZ=              0.0110 YYYX=              0.8631 YYYZ=             -0.0024 ZZZX=             -0.0123
 ZZZY=              0.0014 XXYY=           -526.4307 XXZZ=           -504.3018 YYZZ=            -45.2968
 XXYZ=              0.0099 YYXZ=              0.0072 ZZXY=             -2.1218
 N-N= 3.783578328515D+02 E-N=-1.485916177476D+03  KE= 3.131770022293D+02
 Calling FoFJK, ICntrl=      2127 FMM=F ISym2X=0 I1Cent= 0 IOpClX= 0 NMat=1 NMatS=1 NMatT=0.
 ***** Axes restored to original set *****
 -------------------------------------------------------------------
 Center     Atomic                   Forces (Hartrees/Bohr)
 Number     Number              X              Y              Z
 -------------------------------------------------------------------
      1        6          -0.000006980    0.020210950    0.016840515
      2        1           0.012896302   -0.011132730   -0.003446588
      3        1          -0.000019168    0.006380778   -0.017074192
      4        1          -0.012869228   -0.011168892   -0.003429105
      5        6           0.000002790   -0.039499782   -0.006162056
      6        1          -0.012838464    0.013034641    0.001033066
      7        1           0.012825976    0.013047677    0.001029483
      8        6           0.000009182    0.045326749    0.000699896
      9        1           0.013264869   -0.012997153   -0.000619432
     10        1          -0.013264774   -0.012993655   -0.000620500
     11        6          -0.000004626   -0.045324954   -0.001982703
     12        1          -0.013170467    0.012921134    0.000504722
     13        1           0.013173126    0.012917674    0.000504498
     14        6           0.000005861    0.045324951    0.001982645
     15        1           0.013170117   -0.012921097   -0.000504993
     16        1          -0.013173473   -0.012917709   -0.000504170
     17        6          -0.000005927   -0.045326746   -0.000699945
     18        1          -0.013263124    0.012997127    0.000620360
     19        1           0.013266521    0.012993682    0.000619622
     20        6           0.000005243    0.039499898    0.006161989
     21        1           0.012830535   -0.013042807   -0.001031540
     22        1          -0.012833935   -0.013039508   -0.001030915
     23        6          -0.000003001   -0.020211050   -0.016840584
     24        1          -0.012881287    0.011152415    0.003438206
     25        1          -0.000000389   -0.006380747    0.017074245
     26        1           0.012884321    0.011149154    0.003437479
 -------------------------------------------------------------------
 Cartesian Forces:  Max     0.045326749 RMS     0.015511323

 GradGradGradGradGradGradGradGradGradGradGradGradGradGradGradGradGradGrad
 Berny optimization.
 FormGI is forming the generalized inverse of G from B-inverse, IUseBI=4.
 Internal  Forces:  Max     0.018342850 RMS     0.007558739
 Search for a local minimum.
 Step number   1 out of a maximum of  146
 All quantities printed in internal units (Hartrees-Bohrs-Radians)
 Mixed Optimization -- RFO/linear search
 Second derivative matrix not updated -- first step.
 ITU=  0
     Eigenvalues ---    0.00237   0.00237   0.00237   0.00237   0.00237
     Eigenvalues ---    0.00237   0.00237   0.03840   0.03840   0.03840
     Eigenvalues ---    0.03840   0.03840   0.03840   0.04896   0.04896
     Eigenvalues ---    0.04896   0.04896   0.04896   0.04896   0.05720
     Eigenvalues ---    0.05720   0.05720   0.05720   0.07655   0.07655
     Eigenvalues ---    0.07655   0.07655   0.07655   0.07655   0.11701
     Eigenvalues ---    0.11701   0.11701   0.11701   0.11701   0.11701
     Eigenvalues ---    0.16000   0.16000   0.16000   0.16000   0.16000
     Eigenvalues ---    0.16000   0.21948   0.21948   0.21948   0.21948
     Eigenvalues ---    0.21948   0.21948   0.28519   0.28519   0.28519
     Eigenvalues ---    0.28519   0.28519   0.28519   0.28519   0.37230
     Eigenvalues ---    0.37230   0.37230   0.37230   0.37230   0.37230
     Eigenvalues ---    0.37230   0.37230   0.37230   0.37230   0.37230
     Eigenvalues ---    0.37230   0.37230   0.37230   0.37230   0.37230
     Eigenvalues ---    0.37230   0.37230
 RFO step:  Lambda=-2.50656389D-02 EMin= 2.36824074D-03
 Linear search not attempted -- first point.
 Iteration  1 RMS(Cart)=  0.07668245 RMS(Int)=  0.00058954
 Iteration  2 RMS(Cart)=  0.00130921 RMS(Int)=  0.00019404
 Iteration  3 RMS(Cart)=  0.00000031 RMS(Int)=  0.00019404
 Variable       Old X    -DE/DX   Delta X   Delta X   Delta X     New X
                                 (Linear)    (Quad)   (Total)
    R1        2.02201   0.01703   0.00000   0.04286   0.04286   2.06486
    R2        2.02201   0.01743   0.00000   0.04386   0.04386   2.06586
    R3        2.02201   0.01703   0.00000   0.04286   0.04286   2.06486
    R4        2.91018   0.00363   0.00000   0.01169   0.01169   2.92186
    R5        2.02201   0.01803   0.00000   0.04536   0.04536   2.06737
    R6        2.02201   0.01802   0.00000   0.04536   0.04536   2.06737
    R7        2.91018   0.00333   0.00000   0.01073   0.01073   2.92091
    R8        2.02201   0.01834   0.00000   0.04616   0.04616   2.06817
    R9        2.02201   0.01834   0.00000   0.04615   0.04615   2.06816
   R10        2.91018   0.00429   0.00000   0.01384   0.01384   2.92402
   R11        2.02201   0.01822   0.00000   0.04585   0.04585   2.06786
   R12        2.02201   0.01822   0.00000   0.04585   0.04585   2.06786
   R13        2.91018   0.00444   0.00000   0.01431   0.01431   2.92449
   R14        2.02201   0.01822   0.00000   0.04585   0.04585   2.06786
   R15        2.02201   0.01822   0.00000   0.04585   0.04585   2.06786
   R16        2.91018   0.00429   0.00000   0.01384   0.01384   2.92402
   R17        2.02201   0.01834   0.00000   0.04616   0.04616   2.06816
   R18        2.02201   0.01834   0.00000   0.04616   0.04616   2.06816
   R19        2.91018   0.00333   0.00000   0.01073   0.01073   2.92091
   R20        2.02201   0.01802   0.00000   0.04536   0.04536   2.06737
   R21        2.02201   0.01802   0.00000   0.04536   0.04536   2.06737
   R22        2.91018   0.00363   0.00000   0.01169   0.01169   2.92186
   R23        2.02201   0.01703   0.00000   0.04286   0.04286   2.06486
   R24        2.02201   0.01743   0.00000   0.04386   0.04386   2.06586
   R25        2.02201   0.01703   0.00000   0.04286   0.04286   2.06486
    A1        1.91063  -0.00446   0.00000  -0.02286  -0.02321   1.88742
    A2        1.91063  -0.00351   0.00000  -0.02145  -0.02152   1.88911
    A3        1.91063   0.00305   0.00000   0.01584   0.01562   1.92625
    A4        1.91063  -0.00446   0.00000  -0.02286  -0.02321   1.88743
    A5        1.91063   0.00634   0.00000   0.03552   0.03516   1.94579
    A6        1.91063   0.00304   0.00000   0.01582   0.01560   1.92623
    A7        1.91063  -0.00280   0.00000  -0.00515  -0.00534   1.90529
    A8        1.91063  -0.00280   0.00000  -0.00518  -0.00537   1.90526
    A9        1.91063   0.01216   0.00000   0.05816   0.05786   1.96849
   A10        1.91063   0.00016   0.00000  -0.02642  -0.02671   1.88393
   A11        1.91063  -0.00336   0.00000  -0.01069  -0.01109   1.89954
   A12        1.91063  -0.00336   0.00000  -0.01072  -0.01112   1.89951
   A13        1.91063  -0.00383   0.00000  -0.01118  -0.01153   1.89910
   A14        1.91063  -0.00383   0.00000  -0.01120  -0.01156   1.89907
   A15        1.91063   0.01442   0.00000   0.06765   0.06733   1.97796
   A16        1.91063   0.00068   0.00000  -0.02512  -0.02552   1.88511
   A17        1.91063  -0.00372   0.00000  -0.01007  -0.01038   1.90025
   A18        1.91063  -0.00372   0.00000  -0.01007  -0.01038   1.90026
   A19        1.91063  -0.00384   0.00000  -0.01092  -0.01125   1.89938
   A20        1.91063  -0.00384   0.00000  -0.01091  -0.01125   1.89938
   A21        1.91063   0.01464   0.00000   0.06858   0.06826   1.97889
   A22        1.91063   0.00072   0.00000  -0.02512  -0.02553   1.88511
   A23        1.91063  -0.00383   0.00000  -0.01082  -0.01115   1.89948
   A24        1.91063  -0.00383   0.00000  -0.01082  -0.01115   1.89948
   A25        1.91063  -0.00383   0.00000  -0.01082  -0.01115   1.89948
   A26        1.91063  -0.00383   0.00000  -0.01082  -0.01115   1.89948
   A27        1.91063   0.01464   0.00000   0.06858   0.06826   1.97889
   A28        1.91063   0.00072   0.00000  -0.02512  -0.02553   1.88511
   A29        1.91063  -0.00384   0.00000  -0.01091  -0.01125   1.89938
   A30        1.91063  -0.00384   0.00000  -0.01091  -0.01125   1.89938
   A31        1.91063  -0.00372   0.00000  -0.01007  -0.01038   1.90025
   A32        1.91063  -0.00372   0.00000  -0.01007  -0.01038   1.90025
   A33        1.91063   0.01442   0.00000   0.06765   0.06733   1.97796
   A34        1.91063   0.00068   0.00000  -0.02512  -0.02552   1.88511
   A35        1.91063  -0.00383   0.00000  -0.01119  -0.01155   1.89909
   A36        1.91063  -0.00383   0.00000  -0.01119  -0.01155   1.89909
   A37        1.91063  -0.00336   0.00000  -0.01071  -0.01111   1.89953
   A38        1.91063  -0.00336   0.00000  -0.01071  -0.01111   1.89953
   A39        1.91063   0.01216   0.00000   0.05816   0.05786   1.96849
   A40        1.91063   0.00016   0.00000  -0.02642  -0.02671   1.88393
   A41        1.91063  -0.00280   0.00000  -0.00516  -0.00536   1.90528
   A42        1.91063  -0.00280   0.00000  -0.00516  -0.00536   1.90528
   A43        1.91063   0.00304   0.00000   0.01583   0.01561   1.92624
   A44        1.91063   0.00634   0.00000   0.03552   0.03516   1.94579
   A45        1.91063   0.00304   0.00000   0.01583   0.01561   1.92624
   A46        1.91063  -0.00446   0.00000  -0.02286  -0.02321   1.88742
   A47        1.91063  -0.00351   0.00000  -0.02145  -0.02152   1.88911
   A48        1.91063  -0.00446   0.00000  -0.02286  -0.02321   1.88742
    D1        3.13965  -0.00133   0.00000  -0.01572  -0.01571   3.12394
    D2        1.04526   0.00190   0.00000   0.02296   0.02309   1.06835
    D3       -1.04914   0.00029   0.00000   0.00365   0.00372  -1.04541
    D4        1.04526  -0.00161   0.00000  -0.01917  -0.01923   1.02603
    D5       -1.04914   0.00162   0.00000   0.01951   0.01957  -1.02956
    D6        3.13965   0.00001   0.00000   0.00020   0.00020   3.13985
    D7       -1.04914  -0.00189   0.00000  -0.02261  -0.02275  -1.07188
    D8        3.13965   0.00134   0.00000   0.01607   0.01606  -3.12747
    D9        1.04526  -0.00028   0.00000  -0.00324  -0.00331   1.04194
   D10        1.04682  -0.00193   0.00000  -0.02225  -0.02222   1.02461
   D11       -1.04757   0.00193   0.00000   0.02223   0.02220  -1.02538
   D12        3.14122   0.00000   0.00000  -0.00001  -0.00001   3.14121
   D13        3.14122   0.00003   0.00000   0.00052   0.00048  -3.14149
   D14        1.04682   0.00389   0.00000   0.04499   0.04490   1.09172
   D15       -1.04757   0.00196   0.00000   0.02276   0.02269  -1.02488
   D16       -1.04757  -0.00389   0.00000  -0.04495  -0.04486  -1.09243
   D17        3.14122  -0.00003   0.00000  -0.00048  -0.00045   3.14077
   D18        1.04682  -0.00196   0.00000  -0.02271  -0.02265   1.02418
   D19        1.04712  -0.00191   0.00000  -0.02208  -0.02206   1.02506
   D20       -1.04728   0.00191   0.00000   0.02205   0.02204  -1.02524
   D21        3.14151   0.00000   0.00000  -0.00001  -0.00001   3.14150
   D22        3.14151  -0.00005   0.00000  -0.00051  -0.00049   3.14102
   D23        1.04712   0.00377   0.00000   0.04362   0.04360   1.09072
   D24       -1.04728   0.00186   0.00000   0.02156   0.02156  -1.02572
   D25       -1.04728  -0.00377   0.00000  -0.04361  -0.04359  -1.09087
   D26        3.14151   0.00005   0.00000   0.00052   0.00050  -3.14118
   D27        1.04712  -0.00186   0.00000  -0.02155  -0.02155   1.02557
   D28        1.04719  -0.00191   0.00000  -0.02200  -0.02199   1.02520
   D29       -1.04721   0.00191   0.00000   0.02201   0.02199  -1.02522
   D30        3.14158   0.00000   0.00000   0.00000   0.00000   3.14158
   D31        3.14158   0.00000   0.00000   0.00000   0.00000   3.14158
   D32        1.04719   0.00381   0.00000   0.04401   0.04398   1.09117
   D33       -1.04721   0.00191   0.00000   0.02200   0.02199  -1.02522
   D34       -1.04721  -0.00381   0.00000  -0.04401  -0.04398  -1.09119
   D35        3.14158   0.00000   0.00000   0.00000   0.00000   3.14158
   D36        1.04719  -0.00191   0.00000  -0.02201  -0.02199   1.02520
   D37        1.04720  -0.00186   0.00000  -0.02155  -0.02155   1.02564
   D38       -1.04720   0.00186   0.00000   0.02155   0.02155  -1.02565
   D39        3.14159   0.00000   0.00000   0.00000   0.00000   3.14159
   D40        3.14159   0.00005   0.00000   0.00051   0.00050  -3.14110
   D41        1.04720   0.00377   0.00000   0.04362   0.04360   1.09079
   D42       -1.04720   0.00191   0.00000   0.02206   0.02205  -1.02515
   D43       -1.04720  -0.00377   0.00000  -0.04362  -0.04360  -1.09080
   D44        3.14159  -0.00005   0.00000  -0.00051  -0.00050   3.14110
   D45        1.04720  -0.00191   0.00000  -0.02206  -0.02205   1.02515
   D46        1.04720  -0.00196   0.00000  -0.02274  -0.02267   1.02453
   D47       -1.04720   0.00196   0.00000   0.02273   0.02267  -1.02452
   D48       -3.14159   0.00000   0.00000   0.00000   0.00000  -3.14159
   D49       -3.14159  -0.00003   0.00000  -0.00050  -0.00046   3.14113
   D50        1.04720   0.00389   0.00000   0.04497   0.04488   1.09208
   D51       -1.04720   0.00193   0.00000   0.02224   0.02221  -1.02499
   D52       -1.04720  -0.00389   0.00000  -0.04497  -0.04488  -1.09207
   D53       -3.14159   0.00003   0.00000   0.00050   0.00046  -3.14113
   D54        1.04720  -0.00193   0.00000  -0.02224  -0.02221   1.02499
   D55        1.04720  -0.00028   0.00000  -0.00344  -0.00352   1.04368
   D56       -3.14159   0.00000   0.00000   0.00000   0.00000  -3.14159
   D57       -1.04720   0.00028   0.00000   0.00344   0.00352  -1.04368
   D58       -3.14159   0.00133   0.00000   0.01590   0.01588  -3.12571
   D59       -1.04720   0.00161   0.00000   0.01934   0.01940  -1.02779
   D60        1.04720   0.00190   0.00000   0.02279   0.02292   1.07012
   D61       -1.04720  -0.00190   0.00000  -0.02279  -0.02292  -1.07012
   D62        1.04720  -0.00161   0.00000  -0.01934  -0.01940   1.02780
   D63       -3.14159  -0.00133   0.00000  -0.01590  -0.01588   3.12571
         Item               Value     Threshold  Converged?
 Maximum Force            0.018343     0.000450     NO 
 RMS     Force            0.007559     0.000300     NO 
 Maximum Displacement     0.268509     0.001800     NO 
 RMS     Displacement     0.075433     0.001200     NO 
 Predicted change in Energy=-1.391501D-02
 GradGradGradGradGradGradGradGradGradGradGradGradGradGradGradGradGradGrad

                          Input orientation:                          
 ---------------------------------------------------------------------
 Center     Atomic      Atomic             Coordinates (Angstroms)
 Number     Number       Type             X           Y           Z
 ---------------------------------------------------------------------
      1          6           0        0.000235   -0.261966   -4.528285
      2          1           0        0.886640   -0.898608   -4.582323
      3          1           0       -0.001586    0.393937   -5.402866
      4          1           0       -0.884016   -0.901712   -4.580958
      5          6           0       -0.000190    0.549263   -3.212006
      6          1           0       -0.885091    1.192030   -3.186548
      7          1           0        0.884382    1.192469   -3.186281
      8          6           0       -0.000128   -0.349813   -1.954713
      9          1           0        0.885306   -0.992551   -1.980545
     10          1           0       -0.885613   -0.992478   -1.980439
     11          6           0       -0.000012    0.449502   -0.629835
     12          1           0       -0.885269    1.092247   -0.605126
     13          1           0        0.885383    1.092057   -0.605162
     14          6           0       -0.000081   -0.449502    0.629835
     15          1           0        0.885170   -1.092254    0.605119
     16          1           0       -0.885482   -1.092051    0.605169
     17          6           0        0.000047    0.349813    1.954713
     18          1           0       -0.885337    0.992617    1.980515
     19          1           0        0.885582    0.992411    1.980469
     20          6           0       -0.000025   -0.549263    3.212006
     21          1           0        0.884637   -1.192352    3.186392
     22          1           0       -0.884836   -1.192147    3.186437
     23          6           0        0.000102    0.261966    4.528285
     24          1           0       -0.885153    0.900262    4.581663
     25          1           0        0.000050   -0.393939    5.402866
     26          1           0        0.885506    0.900060    4.581617
 ---------------------------------------------------------------------
                    Distance matrix (angstroms):
                    1          2          3          4          5
     1  C    0.000000
     2  H    1.092679   0.000000
     3  H    1.093208   1.770002   0.000000
     4  H    1.092679   1.770659   1.770005   0.000000
     5  C    1.546184   2.181873   2.196360   2.181858   0.000000
     6  H    2.167525   3.075384   2.515869   2.515579   1.094005
     7  H    2.167504   2.514268   2.517110   3.075378   1.094003
     8  C    2.575071   2.826989   3.527453   2.825422   1.545679
     9  H    2.794295   2.603473   3.797526   3.146569   2.162819
    10  H    2.794619   3.149522   3.796927   2.602103   2.162798
    11  C    3.962840   4.269158   4.773354   4.268326   2.584097
    12  H    4.243724   4.787616   4.928168   4.447821   2.806068
    13  H    4.243555   4.447534   4.928696   4.786736   2.806154
    14  C    5.161529   5.306087   6.091377   5.304545   3.969543
    15  H    5.274877   5.191056   6.252278   5.482857   4.248398
    16  H    5.275024   5.485244   6.251872   5.189619   4.248349
    17  C    6.511801   6.713974   7.357712   6.712889   5.170568
    18  H    6.687504   7.056025   7.460144   6.829452   5.286050
    19  H    6.687390   6.829802   7.460488   7.054892   5.286092
    20  C    7.745621   7.852374   8.666351   7.850856   6.517261
    21  H    7.820743   7.774266   8.779353   7.971469   6.689965
    22  H    7.820839   7.973577   8.779061   7.772823   6.689931
    23  C    9.071713   9.226921   9.932028   9.225732   7.745621
    24  H    9.226367   9.505463  10.036328   9.338134   7.851601
    25  H    9.932028  10.037168  10.834417  10.035744   8.666352
    26  H    9.226285   9.338790  10.036583   9.504229   7.851629
                    6          7          8          9         10
     6  H    0.000000
     7  H    1.769473   0.000000
     8  C    2.162835   2.162811   0.000000
     9  H    3.059598   2.495618   1.094427   0.000000
    10  H    2.495350   3.059563   1.094424   1.770919   0.000000
    11  C    2.805618   2.805275   1.547322   2.165114   2.165116
    12  H    2.583350   3.131145   2.164348   3.061551   2.497512
    13  H    3.131792   2.583071   2.164349   2.497453   3.061552
    14  C    4.247664   4.247480   2.586470   2.809430   2.809364
    15  H    4.767443   4.426587   2.808507   2.587586   3.135402
    16  H    4.426527   4.767235   2.808516   3.135523   2.587524
    17  C    5.284446   5.284121   3.971536   4.251104   4.251067
    18  H    5.170910   5.465128   4.251087   4.771381   4.430549
    19  H    5.465637   5.170622   4.251083   4.430543   4.771343
    20  C    6.690062   6.689834   5.170568   5.286105   5.286038
    21  H    7.030759   6.804287   5.284282   5.170799   5.465334
    22  H    6.804354   7.030509   5.284284   5.465432   5.170733
    23  C    7.820948   7.820634   6.511800   6.687471   6.687422
    24  H    7.773688   7.972301   6.713433   7.055483   6.829616
    25  H    8.779340   8.779076   7.357712   7.460347   7.460285
    26  H    7.972744   7.773399   6.713430   6.829638   7.055434
                   11         12         13         14         15
    11  C    0.000000
    12  H    1.094263   0.000000
    13  H    1.094263   1.770652   0.000000
    14  C    1.547571   2.164642   2.164641   0.000000
    15  H    2.164641   3.061241   2.497198   1.094263   0.000000
    16  H    2.164642   2.497192   3.061240   1.094263   1.770652
    17  C    2.586470   2.808517   2.808507   1.547322   2.164349
    18  H    2.809396   2.587560   3.135453   2.165115   3.061552
    19  H    2.809398   3.135472   2.587551   2.165115   2.497482
    20  C    3.969543   4.248377   4.248370   2.584097   2.806113
    21  H    4.247572   4.767343   4.426557   2.805447   2.583212
    22  H    4.247571   4.426557   4.767336   2.805446   3.131470
    23  C    5.161528   5.274956   5.274946   3.962840   4.243641
    24  H    5.305316   5.190341   5.484044   4.268742   4.787177
    25  H    6.091377   6.252080   6.252072   4.773354   4.928434
    26  H    5.305316   5.484057   5.190331   4.268742   4.447679
                   16         17         18         19         20
    16  H    0.000000
    17  C    2.164348   0.000000
    18  H    2.497483   1.094426   0.000000
    19  H    3.061552   1.094426   1.770919   0.000000
    20  C    2.806110   1.545679   2.162809   2.162809   0.000000
    21  H    3.131468   2.162823   3.059581   2.495483   1.094004
    22  H    2.583208   2.162823   2.495485   3.059581   1.094004
    23  C    4.243638   2.575071   2.794456   2.794457   1.546184
    24  H    4.447676   2.826205   2.602787   3.148048   2.181865
    25  H    4.928431   3.527453   3.797227   3.797227   2.196360
    26  H    4.787175   2.826204   3.148044   2.602787   2.181865
                   21         22         23         24         25
    21  H    0.000000
    22  H    1.769473   0.000000
    23  C    2.167515   2.167514   0.000000
    24  H    3.075381   2.514922   1.092679   0.000000
    25  H    2.516489   2.516490   1.093208   1.770004   0.000000
    26  H    2.514923   3.075381   1.092679   1.770659   1.770004
                   26
    26  H    0.000000
 Stoichiometry    C8H18
 Framework group  C1[X(C8H18)]
 Deg. of freedom    72
 Full point group                 C1      NOp   1
 Largest Abelian subgroup         C1      NOp   1
 Largest concise Abelian subgroup C1      NOp   1
                         Standard orientation:                         
 ---------------------------------------------------------------------
 Center     Atomic      Atomic             Coordinates (Angstroms)
 Number     Number       Type             X           Y           Z
 ---------------------------------------------------------------------
      1          6           0       -4.528345    0.260934    0.000237
      2          1           0       -4.582526    0.897584    0.886628
      3          1           0       -5.402776   -0.395168   -0.001568
      4          1           0       -4.581165    0.900648   -0.884027
      5          6           0       -3.211881   -0.549995   -0.000172
      6          1           0       -3.186278   -1.192776   -0.885058
      7          1           0       -3.186007   -1.193175    0.884414
      8          6           0       -1.954793    0.349368   -0.000132
      9          1           0       -1.980770    0.992119    0.885288
     10          1           0       -1.980667    0.992007   -0.885631
     11          6           0       -0.629733   -0.449645   -0.000001
     12          1           0       -0.604878   -1.092405   -0.885243
     13          1           0       -0.604912   -1.092175    0.885409
     14          6           0        0.629733    0.449645   -0.000092
     15          1           0        0.604872    1.092411    0.885146
     16          1           0        0.604918    1.092169   -0.885506
     17          6           0        1.954793   -0.349368    0.000052
     18          1           0        1.980740   -0.992186   -0.885318
     19          1           0        1.980697   -0.991940    0.885601
     20          6           0        3.211881    0.549995   -0.000042
     21          1           0        3.186121    1.193097    0.884606
     22          1           0        3.186164    1.192854   -0.884867
     23          6           0        4.528345   -0.260934    0.000101
     24          1           0        4.581867   -0.899238   -0.885140
     25          1           0        5.402776    0.395170    0.000033
     26          1           0        4.581823   -0.898996    0.885519
 ---------------------------------------------------------------------
 Rotational constants (GHZ):     10.6470845      0.4698269      0.4603287
 Standard basis: 6-31G(d,p) (6D, 7F)
 There are   210 symmetry adapted cartesian basis functions of A   symmetry.
 There are   210 symmetry adapted basis functions of A   symmetry.
   210 basis functions,   350 primitive gaussians,   210 cartesian basis functions
    33 alpha electrons       33 beta electrons
       nuclear repulsion energy       371.5700251280 Hartrees.
 NAtoms=   26 NActive=   26 NUniq=   26 SFac= 1.00D+00 NAtFMM=   60 NAOKFM=F Big=F
 Integral buffers will be    131072 words long.
 Raffenetti 2 integral format.
 Two-electron integral symmetry is turned on.
 One-electron integrals computed using PRISM.
 NBasis=   210 RedAO= T EigKep=  2.78D-03  NBF=   210
 NBsUse=   210 1.00D-06 EigRej= -1.00D+00 NBFU=   210
 Initial guess from the checkpoint file:  "\\icnas1.cc.ic.ac.uk\dp1820\Desktop\log files\alkanes\C_8_12.chk"
 B after Tr=     0.000000    0.000000    0.000000
         Rot=    1.000000    0.000009    0.000000   -0.000002 Ang=   0.00 deg.
 ExpMin= 1.61D-01 ExpMax= 3.05D+03 ExpMxC= 4.57D+02 IAcc=2 IRadAn=         4 AccDes= 0.00D+00
 Harris functional with IExCor=  402 and IRadAn=       4 diagonalized for initial guess.
 HarFok:  IExCor=  402 AccDes= 0.00D+00 IRadAn=         4 IDoV= 1 UseB2=F ITyADJ=14
 ICtDFT=  3500011 ScaDFX=  1.000000  1.000000  1.000000  1.000000
 FoFCou: FMM=F IPFlag=           0 FMFlag=      100000 FMFlg1=           0
         NFxFlg=           0 DoJE=T BraDBF=F KetDBF=T FulRan=T
         wScrn=  0.000000 ICntrl=     500 IOpCl=  0 I1Cent=   200000004 NGrid=           0
         NMat0=    1 NMatS0=      1 NMatT0=    0 NMatD0=    1 NMtDS0=    0 NMtDT0=    0
 Petite list used in FoFCou.
 Keep R1 ints in memory in canonical form, NReq=250284088.
 Requested convergence on RMS density matrix=1.00D-08 within 128 cycles.
 Requested convergence on MAX density matrix=1.00D-06.
 Requested convergence on             energy=1.00D-06.
 No special actions if energy rises.
 Integral accuracy reduced to 1.0D-05 until final iterations.
 Initial convergence to 1.0D-05 achieved.  Increase integral accuracy.
 SCF Done:  E(RB3LYP) =  -315.736697010     A.U. after    9 cycles
            NFock=  9  Conv=0.85D-08     -V/T= 2.0105
 Calling FoFJK, ICntrl=      2127 FMM=F ISym2X=0 I1Cent= 0 IOpClX= 0 NMat=1 NMatS=1 NMatT=0.
 ***** Axes restored to original set *****
 -------------------------------------------------------------------
 Center     Atomic                   Forces (Hartrees/Bohr)
 Number     Number              X              Y              Z
 -------------------------------------------------------------------
      1        6          -0.000000431    0.005239762    0.008628020
      2        1           0.000932667   -0.001704624   -0.001191455
      3        1           0.000004398    0.000419273   -0.000702780
      4        1          -0.000936916   -0.001699525   -0.001196779
      5        6           0.000002688   -0.011023745   -0.000972366
      6        1          -0.000365809    0.003249477    0.000001180
      7        1           0.000359499    0.003258981   -0.000006003
      8        6           0.000005095    0.011419171    0.001340937
      9        1           0.000510733   -0.003590558   -0.000148502
     10        1          -0.000510907   -0.003591783   -0.000149208
     11        6          -0.000001876   -0.011525697   -0.000277107
     12        1          -0.000541030    0.003602254    0.000139609
     13        1           0.000541748    0.003602164    0.000139252
     14        6           0.000001271    0.011525694    0.000277085
     15        1           0.000540995   -0.003602283   -0.000139409
     16        1          -0.000541783   -0.003602134   -0.000139430
     17        6          -0.000001335   -0.011419176   -0.001340951
     18        1          -0.000510400    0.003591217    0.000148879
     19        1           0.000511241    0.003591124    0.000148856
     20        6           0.000001298    0.011023745    0.000972331
     21        1           0.000362281   -0.003254275    0.000002409
     22        1          -0.000363030   -0.003254193    0.000002420
     23        6          -0.000000803   -0.005239752   -0.008628040
     24        1          -0.000934563    0.001702177    0.001194166
     25        1          -0.000000045   -0.000419252    0.000702784
     26        1           0.000935015    0.001701956    0.001194101
 -------------------------------------------------------------------
 Cartesian Forces:  Max     0.011525697 RMS     0.003839481

 GradGradGradGradGradGradGradGradGradGradGradGradGradGradGradGradGradGrad
 Berny optimization.
 Using GEDIIS/GDIIS optimizer.
 FormGI is forming the generalized inverse of G from B-inverse, IUseBI=4.
 Internal  Forces:  Max     0.005924605 RMS     0.001696230
 Search for a local minimum.
 Step number   2 out of a maximum of  146
 All quantities printed in internal units (Hartrees-Bohrs-Radians)
 Mixed Optimization -- RFO/linear search
 Update second derivatives using D2CorX and points    1    2
 DE= -1.31D-02 DEPred=-1.39D-02 R= 9.41D-01
 TightC=F SS=  1.41D+00  RLast= 3.31D-01 DXNew= 5.0454D-01 9.9328D-01
 Trust test= 9.41D-01 RLast= 3.31D-01 DXMaxT set to 5.05D-01
 ITU=  1  0
 Use linear search instead of GDIIS.
     Eigenvalues ---    0.00237   0.00237   0.00237   0.00237   0.00237
     Eigenvalues ---    0.00237   0.00237   0.03422   0.03422   0.03426
     Eigenvalues ---    0.03426   0.03472   0.03472   0.04689   0.04769
     Eigenvalues ---    0.04770   0.04770   0.04776   0.04778   0.05423
     Eigenvalues ---    0.05423   0.05546   0.05552   0.08242   0.08245
     Eigenvalues ---    0.08326   0.08326   0.08335   0.08335   0.12151
     Eigenvalues ---    0.12151   0.12213   0.12213   0.12219   0.12219
     Eigenvalues ---    0.15698   0.16000   0.16000   0.16000   0.16000
     Eigenvalues ---    0.16099   0.21964   0.21966   0.21982   0.21982
     Eigenvalues ---    0.21983   0.23461   0.28488   0.28519   0.28519
     Eigenvalues ---    0.28519   0.28519   0.28519   0.28618   0.36704
     Eigenvalues ---    0.37230   0.37230   0.37230   0.37230   0.37230
     Eigenvalues ---    0.37230   0.37230   0.37230   0.37230   0.37230
     Eigenvalues ---    0.37230   0.37230   0.37230   0.37230   0.37230
     Eigenvalues ---    0.37230   0.38133
 RFO step:  Lambda=-2.06069493D-03 EMin= 2.36824074D-03
 Quartic linear search produced a step of  0.07831.
 Iteration  1 RMS(Cart)=  0.01610930 RMS(Int)=  0.00008900
 Iteration  2 RMS(Cart)=  0.00009274 RMS(Int)=  0.00003423
 Iteration  3 RMS(Cart)=  0.00000001 RMS(Int)=  0.00003423
 Variable       Old X    -DE/DX   Delta X   Delta X   Delta X     New X
                                 (Linear)    (Quad)   (Total)
    R1        2.06486   0.00181   0.00336   0.00452   0.00787   2.07274
    R2        2.06586   0.00081   0.00343   0.00164   0.00507   2.07094
    R3        2.06486   0.00181   0.00336   0.00452   0.00788   2.07274
    R4        2.92186  -0.00590   0.00092  -0.02228  -0.02137   2.90050
    R5        2.06737   0.00221   0.00355   0.00562   0.00917   2.07654
    R6        2.06737   0.00221   0.00355   0.00562   0.00917   2.07654
    R7        2.92091  -0.00502   0.00084  -0.01900  -0.01816   2.90275
    R8        2.06817   0.00253   0.00361   0.00652   0.01014   2.07831
    R9        2.06816   0.00253   0.00361   0.00653   0.01014   2.07830
   R10        2.92402  -0.00582   0.00108  -0.02203  -0.02094   2.90307
   R11        2.06786   0.00256   0.00359   0.00662   0.01021   2.07807
   R12        2.06786   0.00256   0.00359   0.00662   0.01021   2.07807
   R13        2.92449  -0.00592   0.00112  -0.02243  -0.02131   2.90317
   R14        2.06786   0.00256   0.00359   0.00662   0.01021   2.07807
   R15        2.06786   0.00256   0.00359   0.00662   0.01021   2.07807
   R16        2.92402  -0.00582   0.00108  -0.02203  -0.02094   2.90307
   R17        2.06816   0.00253   0.00361   0.00652   0.01014   2.07830
   R18        2.06816   0.00253   0.00361   0.00652   0.01014   2.07830
   R19        2.92091  -0.00502   0.00084  -0.01900  -0.01816   2.90275
   R20        2.06737   0.00221   0.00355   0.00562   0.00917   2.07654
[...]
 ,0.00008179,0.00018927,-0.00003150,-0.00006595,0.00034663,-0.00002072,
 -0.00009101,0.00001132,0.00032620,0.00030008,-0.00062211,0.00001353,0.
 00031536,0.00000070,0.00093995,-0.00008605,-0.00047465,0.00169170,0.00
 014204,0.00015036,-0.21284113,-0.11711665,-0.00453502,-0.02179446,-0.0
 1566730,-0.00056232,0.22830595,-0.00000632,0.00001438,-0.00000390,0.00
 000071,-0.00000721,-0.00000041,-0.00000127,-0.00000058,-0.00001245,0.0
 0000561,-0.00000128,0.00000482,0.00004456,-0.00000318,-0.00001398,-0.0
 0000010,0.00000437,-0.00000277,0.00000851,0.00002597,-0.00003419,0.000
 25209,0.00012594,-0.00005202,-0.00000739,-0.00004843,-0.00000791,0.000
 08179,0.00008570,0.00021541,0.00017658,0.00021129,0.00111193,0.0000896
 3,0.00009404,-0.00005884,0.00025326,0.00070777,-0.00050638,-0.01520085
 ,-0.01162107,-0.00153744,0.00008426,0.00026441,0.00066518,0.00013791,-
 0.00140522,-0.00318944,-0.11675064,-0.13501065,-0.00344426,0.01565824,
 0.01208146,0.00046478,0.13106458,0.14784145,0.00000355,-0.00000312,0.0
 0001369,-0.00000103,-0.00000297,0.00000058,-0.00000126,0.00000123,-0.0
 0000025,0.00000431,0.00000195,0.00001009,0.00006729,0.00006188,0.00002
 880,-0.00000235,0.00000326,-0.00000577,0.00002233,0.00004120,-0.000053
 05,0.00011883,-0.00009856,-0.00009292,-0.00001535,-0.00000792,0.000016
 87,0.00018926,0.00021542,0.00011052,-0.00115861,-0.00095413,0.00180475
 ,0.00001622,0.00007321,-0.00008468,0.00064479,0.00058638,-0.00037626,-
 0.02427495,-0.01729200,-0.00252176,0.00047670,0.00066910,0.00113908,0.
 00015109,-0.00319960,-0.00495574,-0.00449900,-0.00345311,-0.04749909,0
 .00056260,0.00046523,-0.00039181,0.00501156,0.00356989,0.05599297,0.00
 001491,-0.00000003,0.00000002,-0.00000586,0.00000336,0.00000304,-0.000
 00565,0.,0.00000002,-0.00000585,-0.00000335,-0.00000304,-0.00001989,0.
 00000008,0.00000005,0.00000382,0.00000781,0.00000341,0.00000381,-0.000
 00781,-0.00000341,0.00067238,-0.00000011,0.00000016,-0.00003472,-0.000
 04457,-0.00006730,-0.00003471,0.00004456,0.00006729,-0.00080049,0.0000
 0039,0.00000046,0.00032506,-0.00026300,0.00009938,0.00032491,0.0002630
 7,-0.00009941,-0.00071438,-0.00000190,0.00000146,-0.00003316,-0.000176
 72,0.00116263,-0.00003320,0.00017666,-0.00116235,-0.08063018,0.0000060
 0,-0.00000745,-0.00008039,0.01715652,-0.02312872,-0.00007543,-0.017152
 99,0.02312425,0.59008342,-0.00000004,0.00026644,-0.00015398,0.00001801
 ,-0.00002287,0.00000574,0.,-0.00003959,-0.00014879,-0.00001801,-0.0000
 2288,0.00000574,0.00000009,-0.00064805,-0.00037592,-0.00002710,0.00001
 800,0.00000267,0.00002710,0.00001800,0.00000267,-0.00000016,0.00165426
 ,-0.00124449,0.00007686,-0.00000317,0.00006186,-0.00007686,-0.00000318
 ,0.00006188,0.00000042,-0.00409807,-0.00357222,-0.00030621,0.00010999,
 0.00011805,0.00030627,0.00011014,0.00011802,-0.00000218,0.01457030,-0.
 01290927,0.00007354,0.00023061,-0.00095043,-0.00007363,0.00023064,-0.0
 0095075,0.00000598,-0.12172485,0.05122728,-0.00026406,-0.01316882,0.01
 657688,0.00026787,-0.01317334,0.01658307,0.00000775,0.53281142,-0.0000
 0002,0.00012746,-0.00008768,0.00000421,-0.00000236,0.00000258,0.,-0.00
 002790,-0.00004869,-0.00000421,-0.00000236,0.00000258,0.00000005,-0.00
 037592,-0.00031061,-0.00001690,-0.00000157,0.00001717,0.00001690,-0.00
 000156,0.00001717,-0.00000020,0.00133694,-0.00043407,0.00005340,-0.000
 01397,0.00002880,-0.00005339,-0.00001399,0.00002880,0.00000046,-0.0034
 3543,-0.00266478,-0.00019532,0.00006060,-0.00007621,0.00019530,0.00006
 065,-0.00007621,-0.00000238,0.01564218,-0.02921969,-0.00035607,0.00110
 502,0.00176594,0.00035582,0.00110512,0.00176596,-0.00000759,0.05223296
 ,-0.14331556,0.00012573,0.00072562,-0.00126463,-0.00012595,0.00072591,
 -0.00126507,-0.00000238,0.00810555,0.45459454,-0.00000530,0.00001467,-
 0.00000541,0.00000632,-0.00000317,-0.00000237,0.00000043,-0.00000336,-
 0.00000562,-0.00000189,0.00000039,-0.00000021,0.00000382,-0.00002710,-
 0.00001690,0.00000398,-0.00000678,0.00000416,-0.00000086,0.00000069,0.
 00000113,-0.00003471,0.00008023,-0.00005080,0.00002647,-0.00000851,-0.
 00002235,-0.00000664,-0.00000010,-0.00000235,0.00032514,-0.00030850,-0
 .00020694,-0.00000840,-0.00009762,0.00018649,-0.00002102,-0.00001002,0
 .00001628,-0.00003702,0.00003598,0.00035115,0.00033150,-0.00025424,-0.
 00065012,-0.00002446,0.00008846,0.00001157,-0.00003047,-0.00025694,-0.
 00011526,0.00172786,-0.00018924,0.00008748,0.00094661,0.00010775,-0.00
 045200,-0.21455121,0.11863924,0.00442097,0.22975708,0.00000314,-0.0000
 1256,0.00000320,-0.00000365,0.00000498,0.00000168,0.00000050,0.0000008
 2,0.00000716,-0.00000014,0.00000055,-0.00000036,0.00000780,0.00001800,
 -0.00000157,-0.00000678,0.00000129,-0.00000363,-0.00000069,-0.00000610
 ,0.00000138,-0.00005007,-0.00000006,0.00001618,-0.00001028,0.00002597,
 0.00004120,0.00000021,0.00000437,0.00000326,-0.00026674,0.00011367,0.0
 0006927,-0.00009669,0.00012043,-0.00021928,0.00000867,-0.00004977,0.00
 000329,-0.00009339,0.00023930,-0.00125202,-0.00030707,0.00071748,0.000
 59151,-0.00009128,0.00009450,0.00007122,0.01721195,-0.01318954,0.00091
 038,-0.00019056,-0.00188751,0.00353864,-0.00013360,0.00035445,-0.00073
 319,0.11804788,-0.13651280,-0.00318704,-0.13202075,0.14864065,-0.00000
 160,0.00000112,0.00000239,0.00000172,-0.00000159,-0.00000179,-0.000000
 12,0.00000049,-0.00000109,-0.00000036,-0.00000022,-0.00000022,0.000003
 41,0.00000267,0.00001717,0.00000416,-0.00000363,0.00000831,-0.00000113
 ,0.00000138,-0.00000012,0.00006480,-0.00006370,0.00002455,0.00002039,-
 0.00003418,-0.00005305,-0.00000204,-0.00000277,-0.00000577,0.00010099,
 0.00011169,-0.00007863,0.00018208,-0.00021546,0.00007883,-0.00001481,0
 .00000244,0.00001817,-0.00116862,0.00084654,0.00179115,0.00062611,-0.0
 0051437,-0.00037725,0.00001066,-0.00006166,-0.00008516,-0.02318576,0.0
 1661810,-0.00123068,0.00013694,0.00343702,-0.00451425,0.00046628,-0.00
 074220,0.00102450,0.00427611,-0.00308172,-0.04741772,-0.00494022,0.003
 43670,0.05627274,-0.00000530,-0.00001467,0.00000540,-0.00000189,-0.000
 00039,0.00000021,0.00000042,0.00000336,0.00000561,0.00000632,0.0000031
 7,0.00000237,0.00000381,0.00002710,0.00001690,-0.00000086,-0.00000069,
 -0.00000113,0.00000398,0.00000678,-0.00000416,-0.00003470,-0.00008024,
 0.00005080,-0.00000664,0.00000010,0.00000235,0.00002647,0.00000851,0.0
 0002234,0.00032499,0.00030856,0.00020692,-0.00002102,0.00001003,-0.000
 01628,-0.00000846,0.00009758,-0.00018643,-0.00003702,-0.00003605,-0.00
 035078,-0.00002446,-0.00008849,-0.00001159,0.00033135,0.00025413,0.000
 64995,-0.00002549,0.00026079,0.00011499,0.00094660,-0.00010761,0.00045
 220,0.00172775,0.00019028,-0.00008855,-0.21448803,-0.11866017,-0.00441
 693,-0.02185514,-0.01564456,-0.00054254,0.22968660,-0.00000314,-0.0000
 1257,0.00000320,0.00000013,0.00000055,-0.00000036,-0.00000050,0.000000
 82,0.00000716,0.00000365,0.00000498,0.00000168,-0.00000781,0.00001800,
 -0.00000156,0.00000069,-0.00000610,0.00000138,0.00000678,0.00000129,-0
 .00000363,0.00005006,-0.00000007,0.00001619,-0.00000022,0.00000437,0.0
 0000326,0.00001028,0.00002597,0.00004120,0.00026679,0.00011382,0.00006
 932,-0.00000866,-0.00004977,0.00000328,0.00009666,0.00012048,-0.000219
 34,0.00009329,0.00023932,-0.00125212,0.00009125,0.00009450,0.00007121,
 0.00030698,0.00071763,0.00059168,-0.01720841,-0.01319407,0.00091074,0.
 00013374,0.00035446,-0.00073307,0.00019159,-0.00188741,0.00353861,-0.1
 1806881,-0.13657614,-0.00318597,0.01563544,0.01225153,0.00050899,0.132
 04250,0.14871131,0.00000160,0.00000112,0.00000239,0.00000036,-0.000000
 22,-0.00000022,0.00000012,0.00000049,-0.00000109,-0.00000172,-0.000001
 59,-0.00000179,-0.00000341,0.00000267,0.00001717,0.00000113,0.00000138
 ,-0.00000012,-0.00000416,-0.00000363,0.00000831,-0.00006479,-0.0000637
 2,0.00002455,0.00000204,-0.00000277,-0.00000577,-0.00002039,-0.0000341
 9,-0.00005305,-0.00010103,0.00011166,-0.00007863,0.00001481,0.00000244
 ,0.00001816,-0.00018202,-0.00021551,0.00007884,0.00116843,0.00084686,0
 .00179113,-0.00001065,-0.00006166,-0.00008516,-0.00062599,-0.00051454,
 -0.00037725,0.02318129,0.01662430,-0.00123113,-0.00046608,-0.00074232,
 0.00102450,-0.00013798,0.00343698,-0.00451424,-0.00427210,-0.00308060,
 -0.04741755,0.00054281,0.00050944,-0.00041741,0.00493599,0.00343551,0.
 05627255,-0.00000664,0.00000001,0.,-0.00000033,0.00000194,0.00000067,0
 .00000140,0.,0.,-0.00000033,-0.00000195,-0.00000067,0.00001491,-0.0000
 0003,-0.00000002,-0.00000530,0.00000314,-0.00000160,-0.00000530,-0.000
 00314,0.00000160,-0.00002392,0.00000009,-0.00000005,0.00000506,0.00000
 632,-0.00000355,0.00000506,-0.00000632,0.00000355,0.00065607,-0.000000
 12,-0.00000019,-0.00003081,-0.00005129,0.00006807,-0.00003081,0.000051
 28,-0.00006805,-0.00064593,0.00000050,-0.00000046,0.00033089,-0.000274
 69,-0.00016307,0.00033073,0.00027475,0.00016308,-0.00012665,-0.0000019
 9,-0.00000244,0.00008760,-0.00028989,-0.00104262,0.00008751,0.00028975
 ,0.00104248,-0.08035068,0.00000402,0.00000628,0.00087373,0.01429149,0.
 02460979,0.00087681,-0.01428838,-0.02460501,0.56815291,0.00000002,-0.0
 0011448,0.00006063,-0.00000574,0.00001091,-0.00000472,0.,0.00001291,0.
 00006981,0.00000574,0.00001091,-0.00000472,-0.00000004,0.00026644,0.00
 012746,0.00001467,-0.00001256,0.00000112,-0.00001467,-0.00001257,0.000
 00112,0.00000009,-0.00063346,0.00035220,-0.00002639,0.00001438,-0.0000
 0312,0.00002639,0.00001438,-0.00000312,-0.00000010,0.00147331,0.001298
 09,0.00006928,0.00000710,-0.00007194,-0.00006929,0.00000710,-0.0000719
 6,0.00000050,-0.00412812,0.00329129,-0.00031918,0.00012853,-0.00004489
 ,0.00031924,0.00012869,-0.00004485,-0.00000171,0.01378813,0.01606064,-
 0.00011850,0.00052944,0.00064680,0.00011839,0.00052955,0.00064708,0.00
 000401,-0.11405785,-0.05258486,-0.00100607,-0.01082426,-0.01805674,0.0
 0100885,-0.01082781,-0.01806334,0.00000267,0.54478993,0.,0.00006063,-0
 .00003413,0.00000409,-0.00000410,0.00000058,0.,-0.00001078,-0.00002818
 ,-0.00000409,-0.00000410,0.00000058,0.00000002,-0.00015398,-0.00008768
 ,-0.00000541,0.00000320,0.00000239,0.00000540,0.00000320,0.00000239,-0
 .00000006,0.00042791,-0.00029685,0.00002025,-0.00000389,0.00001369,-0.
 00002025,-0.00000390,0.00001369,0.00000017,-0.00132999,-0.00057059,-0.
 00005371,0.00001240,0.00003048,0.00005371,0.00001241,0.00003048,-0.000
 00052,0.00373699,-0.00258582,0.00017621,-0.00004090,-0.00006243,-0.000
 17621,-0.00004095,-0.00006243,0.00000150,-0.01338551,-0.03032295,0.000
 24457,-0.00119588,0.00173786,-0.00024422,-0.00119595,0.00173784,0.0000
 0607,-0.05101014,-0.15964761,0.00000279,-0.00129410,-0.00219689,-0.000
 00250,-0.00129383,-0.00219642,0.00000579,-0.04781158,0.50413772,-0.000
 00033,-0.00000574,0.00000409,0.00000188,-0.00000129,-0.00000191,-0.000
 00032,-0.00000013,0.00000566,-0.00000006,0.00000122,-0.00000087,-0.000
 00586,0.00001801,0.00000421,0.00000632,-0.00000365,0.00000172,-0.00000
 189,0.00000013,0.00000036,0.00000256,-0.00002828,0.00001450,0.00000333
 ,-0.00000561,-0.00000431,-0.00000018,0.00000071,-0.00000103,-0.0000320
 0,0.00007066,0.00004859,0.00002374,-0.00000834,0.00001814,-0.00000683,
 -0.00000016,0.00000263,0.00028778,-0.00029379,0.00014524,-0.00001331,-
 0.00006936,-0.00017229,-0.00001846,-0.00000947,-0.00001513,0.00003760,
 -0.00005080,-0.00031032,0.00022819,-0.00024137,0.00062073,-0.00004986,
 0.00008315,0.00000504,0.00094851,-0.00074277,0.00019810,0.00165216,-0.
 00024548,-0.00032637,0.00085847,0.00005640,0.00050188,-0.22085521,0.12
 270038,0.01099128,0.23700502,0.00000194,0.00001091,-0.00000410,-0.0000
 0129,-0.00000085,0.00000160,0.00000006,0.00000048,-0.00000948,-0.00000
 122,-0.00000352,0.00000034,0.00000336,-0.00002287,-0.00000236,-0.00000
 317,0.00000498,-0.00000159,-0.00000039,0.00000055,-0.00000022,0.000009
 62,0.00002951,0.00000040,-0.00000493,-0.00000129,0.00000195,-0.0000026
 2,-0.00000721,-0.00000297,-0.00004986,-0.00001598,-0.00001333,-0.00000
 488,0.00002443,-0.00003209,-0.00000028,0.00000457,-0.00000168,-0.00020
 108,0.00011971,0.00000006,-0.00007459,0.00006806,0.00020075,0.00000004
 ,-0.00005091,-0.00001250,-0.00039235,0.00037636,0.00111582,-0.00019081
 ,0.00067472,-0.00053873,-0.00007009,0.00009235,-0.00004839,0.01487741,
 -0.01144195,-0.00109250,-0.00054958,-0.00105295,-0.00360494,-0.0001391
 1,0.00015167,0.00061128,0.12251271,-0.13645943,-0.00718439,-0.13599296
 ,0.14650256,0.00000067,-0.00000472,0.00000058,-0.00000191,0.00000160,0
 .00000089,0.00000001,0.00000065,0.00000251,0.00000087,0.00000035,0.000
 00015,0.00000304,0.00000574,0.00000258,-0.00000237,0.00000168,-0.00000
 179,0.00000021,-0.00000036,-0.00000022,-0.00000470,-0.00001688,0.00001
 755,-0.00000614,0.00000482,0.00001009,0.00000263,-0.00000041,0.0000005
 8,-0.00007263,0.00008108,0.00003535,-0.00002237,0.00004115,-0.00005604
 ,0.00000214,0.00000250,-0.00000606,-0.00014860,-0.00011096,-0.00010462
 ,-0.00018814,0.00022406,0.00013245,0.00002193,-0.00000622,0.00002080,0
 .00129095,-0.00089521,0.00198853,-0.00067427,0.00061850,-0.00032818,-0
 .00003361,0.00009163,-0.00009884,0.02483981,-0.01702854,-0.00195117,-0
 .00014102,-0.00326737,-0.00503385,-0.00039511,0.00071467,0.00119564,0.
 01059126,-0.00689462,-0.04889446,-0.01199714,0.01121021,0.05196860,0.0
 0000140,0.,0.,-0.00000032,0.00000006,0.00000001,-0.00000003,0.,0.,-0.0
 0000032,-0.00000006,-0.00000001,-0.00000565,0.,0.,0.00000043,0.0000005
 0,-0.00000012,0.00000042,-0.00000050,0.00000012,0.00000157,0.,0.,-0.00
 000210,0.00000127,0.00000126,-0.00000210,-0.00000127,-0.00000126,-0.00
 000667,0.00000003,0.00000003,0.00000421,0.00000296,0.00000391,0.000004
 21,-0.00000296,-0.00000391,0.00060197,-0.00000002,0.00000011,-0.000018
 63,-0.00004544,-0.00007819,-0.00001863,0.00004543,0.00007817,0.0002207
 7,0.00000027,0.00000030,0.00026179,-0.00034960,0.00032666,0.00026162,0
 .00034966,-0.00032662,-0.00146483,-0.00000175,0.00000198,0.00006359,-0
 .00035371,0.00018215,0.00006348,0.00035352,-0.00018235,-0.04855077,0.0
 0001454,-0.00001881,0.00075279,0.01640499,-0.02225593,0.04707455,0.,0.
 00001291,-0.00001078,-0.00000013,0.00000048,0.00000065,0.,-0.00000292,
 -0.00000552,0.00000013,0.00000048,0.00000065,0.,-0.00003958,-0.0000279
 0,-0.00000336,0.00000082,0.00000049,0.00000336,0.00000082,0.00000049,-
 0.00000001,0.00010311,-0.00007055,0.00000443,-0.00000058,0.00000123,-0
 .00000443,-0.00000058,0.00000123,0.00000004,-0.00029207,-0.00026134,-0
 .00001748,-0.00000262,0.00000912,0.00001748,-0.00000261,0.00000912,-0.
 00000005,0.00090215,-0.00090542,0.00003448,0.00003445,0.00007988,-0.00
 003449,0.00003445,0.00007990,0.00000030,-0.00222769,-0.00249232,-0.000
 27004,0.00005021,-0.00012555,0.00027010,0.00005037,-0.00012564,-0.0000
 0208,0.01291947,-0.01621032,-0.00000019,0.00079586,0.00080488,0.,0.000
 79596,0.00080483,0.00001455,-0.14811613,0.12889224,-0.00135345,-0.0116
 6642,0.01411282,-0.00001621,0.15832010,-0.00000001,0.00006981,-0.00002
 818,0.00000566,-0.00000948,0.00000251,0.,-0.00000552,-0.00004570,-0.00
 000565,-0.00000949,0.00000251,0.00000002,-0.00014879,-0.00004869,-0.00
 000562,0.00000716,-0.00000109,0.00000561,0.00000716,-0.00000109,-0.000
 00005,0.00032932,-0.00012555,0.00001618,-0.00001244,-0.00000025,-0.000
 01618,-0.00001245,-0.00000024,0.00000009,-0.00070490,-0.00041322,-0.00
 002891,0.00001717,0.00001507,0.00002891,0.00001718,0.00001507,-0.00000
 027,0.00191612,-0.00080678,0.00010758,-0.00005460,-0.00001423,-0.00010
 756,-0.00005463,-0.00001423,0.00000074,-0.00580037,-0.00366472,-0.0001
 5463,-0.00010310,0.00030795,0.00015466,-0.00010306,0.00030795,-0.00000
 269,0.01867263,-0.02107559,0.00059179,0.00003931,0.00098043,-0.0005917
 8,0.00003914,0.00098045,-0.00001869,0.12799931,-0.21182721,-0.00054249
 ,-0.00170750,0.00204658,0.00002032,-0.13868095,0.23136211,-0.00000033,
 0.00000574,-0.00000409,-0.00000006,-0.00000122,0.00000087,-0.00000032,
 0.00000013,-0.00000565,0.00000188,0.00000129,0.00000191,-0.00000586,-0
 .00001801,-0.00000421,-0.00000189,-0.00000014,-0.00000036,0.00000632,0
 .00000365,-0.00000172,0.00000256,0.00002827,-0.00001450,-0.00000018,-0
 .00000070,0.00000103,0.00000332,0.00000561,0.00000431,-0.00003200,-0.0
 0007067,-0.00004859,-0.00000683,0.00000016,-0.00000263,0.00002374,0.00
 000834,-0.00001814,0.00028764,0.00029383,-0.00014525,-0.00001847,0.000
 00947,0.00001513,-0.00001334,0.00006934,0.00017224,0.00003746,0.000050
 69,0.00031005,-0.00004986,-0.00008319,-0.00000503,0.00022808,0.0002412
 6,-0.00062060,0.00095181,0.00074577,-0.00019787,0.00085845,-0.00005620
 ,-0.00050204,0.00165196,0.00024614,0.00032721,-0.22078998,-0.12272307,
 -0.01098608,-0.02082405,-0.01613091,-0.00080958,0.00075726,0.00135704,
 0.00054297,0.23693268,-0.00000195,0.00001091,-0.00000410,0.00000122,-0
 .00000352,0.00000035,-0.00000006,0.00000048,-0.00000949,0.00000129,-0.
 00000084,0.00000160,-0.00000335,-0.00002288,-0.00000236,0.00000039,0.0
 0000055,-0.00000022,0.00000317,0.00000498,-0.00000159,-0.00000963,0.00
 002951,0.00000039,0.00000262,-0.00000721,-0.00000297,0.00000493,-0.000
 00128,0.00000195,0.00004985,-0.00001599,-0.00001334,0.00000028,0.00000
 457,-0.00000168,0.00000488,0.00002444,-0.00003210,0.00020112,0.0001198
 4,0.00000002,-0.00000003,-0.00005091,-0.00001250,0.00007457,0.00006810
 ,0.00020080,0.00039229,0.00037648,0.00111590,0.00007006,0.00009235,-0.
 00004839,0.00019068,0.00067484,-0.00053890,-0.01487412,-0.01144573,-0.
 00109227,0.00013931,0.00015170,0.00061115,0.00055023,-0.00105274,-0.00
 360486,-0.12253541,-0.13652506,-0.00718499,0.01612197,0.01266250,0.001
 11382,-0.01640169,-0.01167044,-0.00170704,0.13601737,0.14657536,-0.000
 00067,-0.00000472,0.00000058,-0.00000087,0.00000034,0.00000015,-0.0000
 0001,0.00000065,0.00000251,0.00000191,0.00000160,0.00000089,-0.0000030
 4,0.00000574,0.00000258,-0.00000021,-0.00000036,-0.00000022,0.00000237
 ,0.00000168,-0.00000179,0.00000471,-0.00001687,0.00001755,-0.00000263,
 -0.00000041,0.00000058,0.00000614,0.00000482,0.00001009,0.00007261,0.0
 0008110,0.00003535,-0.00000214,0.00000250,-0.00000606,0.00002236,0.000
 04116,-0.00005604,0.00014862,-0.00011093,-0.00010462,-0.00002192,-0.00
 000623,0.00002080,0.00018809,0.00022411,0.00013245,-0.00129068,-0.0008
 9556,0.00198855,0.00003359,0.00009164,-0.00009884,0.00067409,0.0006186
 7,-0.00032818,-0.02483531,-0.01703520,-0.00195069,0.00039493,0.0007147
 7,0.00119564,0.00014177,-0.00326734,-0.00503386,-0.01058613,-0.0068951
 1,-0.04889405,0.00080967,0.00111435,-0.00094768,0.02225217,0.01411875,
 0.00204615,0.01199061,0.01121082,0.05196815||0.00000040,-0.00000346,0.
 00000091,0.00000804,-0.00000647,-0.00000315,-0.00000012,0.00000254,-0.
 00000901,-0.00000838,-0.00000671,-0.00000334,-0.00000015,-0.00001279,0
 .00001853,-0.00000452,0.00000752,0.00000258,0.00000479,0.00000784,0.00
 000250,-0.00000005,0.00002497,-0.00001563,0.00000640,-0.00000408,0.000
 00128,-0.00000639,-0.00000412,0.00000125,0.00000002,-0.00001418,0.0000
 0789,-0.00000491,0.00000405,-0.00000126,0.00000486,0.00000394,-0.00000
 128,-0.00000004,0.00001418,-0.00000789,0.00000490,-0.00000403,0.000001
 27,-0.00000487,-0.00000397,0.00000127,0.00000003,-0.00002497,0.0000156
 3,-0.00000640,0.00000410,-0.00000127,0.00000640,0.00000410,-0.00000126
 ,0.,0.00001279,-0.00001853,0.00000466,-0.00000768,-0.00000254,-0.00000
 466,-0.00000768,-0.00000254,0.,0.00000346,-0.00000091,-0.00000821,0.00
 000658,0.00000325,0.,-0.00000254,0.00000901,0.00000821,0.00000659,0.00
 000325|||@


 LET US PLACE AT THE END OF EVERY CHAPTER.....THE
 TWO LETTERS USED BY THE ROMAN JUDGES WHEN THEY DID
 NOT UNDERSTAND A PLEADING.
 N. L. -NON LIQUET- IT IS NOT CLEAR.
                                              -- VOLTAIRE
 Job cpu time:       0 days  0 hours  8 minutes 43.0 seconds.
 File lengths (MBytes):  RWF=    117 Int=      0 D2E=      0 Chk=      5 Scr=      1
 Normal termination of Gaussian 09 at Tue Aug 24 16:50:59 2021.
