 Default is to use a total of   8 processors:
                                8 via shared-memory
                                1 via Linda
 Entering Link 1 = C:\G09W\l1.exe PID=     12816.
  
 Copyright (c) 1988,1990,1992,1993,1995,1998,2003,2009,2013,
            Gaussian, Inc.  All Rights Reserved.
  
 This is part of the Gaussian(R) 09 program.  It is based on
 the Gaussian(R) 03 system (copyright 2003, Gaussian, Inc.),
 the Gaussian(R) 98 system (copyright 1998, Gaussian, Inc.),
 the Gaussian(R) 94 system (copyright 1995, Gaussian, Inc.),
 the Gaussian 92(TM) system (copyright 1992, Gaussian, Inc.),
 the Gaussian 90(TM) system (copyright 1990, Gaussian, Inc.),
 the Gaussian 88(TM) system (copyright 1988, Gaussian, Inc.),
 the Gaussian 86(TM) system (copyright 1986, Carnegie Mellon
 University), and the Gaussian 82(TM) system (copyright 1983,
 Carnegie Mellon University). Gaussian is a federally registered
 trademark of Gaussian, Inc.
  
 This software contains proprietary and confidential information,
 including trade secrets, belonging to Gaussian, Inc.
  
 This software is provided under written license and may be
 used, copied, transmitted, or stored only in accord with that
 written license.
  
 The following legend is applicable only to US Government
 contracts under FAR:
  
                    RESTRICTED RIGHTS LEGEND
  
 Use, reproduction and disclosure by the US Government is
 subject to restrictions as set forth in subparagraphs (a)
 and (c) of the Commercial Computer Software - Restricted
 Rights clause in FAR 52.227-19.
  
 Gaussian, Inc.
 340 Quinnipiac St., Bldg. 40, Wallingford CT 06492
  
  
 ---------------------------------------------------------------
 Warning -- This program may not be used in any manner that
 competes with the business of Gaussian, Inc. or will provide
 assistance to any competitor of Gaussian, Inc.  The licensee
 of this program is prohibited from giving any competitor of
 Gaussian, Inc. access to this program.  By using this program,
 the user acknowledges that Gaussian, Inc. is engaged in the
 business of creating and licensing software in the field of
 computational chemistry and represents and warrants to the
 licensee that it is not a competitor of Gaussian, Inc. and that
 it will not use this program in any manner prohibited above.
 ---------------------------------------------------------------
  

 Cite this work as:
 Gaussian 09, Revision D.01,
 M. J. Frisch, G. W. Trucks, H. B. Schlegel, G. E. Scuseria, 
 M. A. Robb, J. R. Cheeseman, G. Scalmani, V. Barone, B. Mennucci, 
 G. A. Petersson, H. Nakatsuji, M. Caricato, X. Li, H. P. Hratchian, 
 A. F. Izmaylov, J. Bloino, G. Zheng, J. L. Sonnenberg, M. Hada, 
 M. Ehara, K. Toyota, R. Fukuda, J. Hasegawa, M. Ishida, T. Nakajima, 
 Y. Honda, O. Kitao, H. Nakai, T. Vreven, J. A. Montgomery, Jr., 
 J. E. Peralta, F. Ogliaro, M. Bearpark, J. J. Heyd, E. Brothers, 
 K. N. Kudin, V. N. Staroverov, T. Keith, R. Kobayashi, J. Normand, 
 K. Raghavachari, A. Rendell, J. C. Burant, S. S. Iyengar, J. Tomasi, 
 M. Cossi, N. Rega, J. M. Millam, M. Klene, J. E. Knox, J. B. Cross, 
 V. Bakken, C. Adamo, J. Jaramillo, R. Gomperts, R. E. Stratmann, 
 O. Yazyev, A. J. Austin, R. Cammi, C. Pomelli, J. W. Ochterski, 
 R. L. Martin, K. Morokuma, V. G. Zakrzewski, G. A. Voth, 
 P. Salvador, J. J. Dannenberg, S. Dapprich, A. D. Daniels, 
 O. Farkas, J. B. Foresman, J. V. Ortiz, J. Cioslowski, 
 and D. J. Fox, Gaussian, Inc., Wallingford CT, 2013.
 
 ******************************************
 Gaussian 09:  EM64W-G09RevD.01 13-Apr-2013
                22-Jul-2021 
 ******************************************
 %chk=\\icnas1.cc.ic.ac.uk\dp1820\Gaussian\CO2_12.chk
 Default route:  MaxDisk=10GB
 ---------------------------------------------------------------------
 # opt freq b3lyp/6-31g(d,p) geom=connectivity integral=grid=ultrafine
 ---------------------------------------------------------------------
 1/14=-1,18=20,19=15,26=4,38=1,57=2/1,3;
 2/9=110,12=2,17=6,18=5,40=1/2;
 3/5=1,6=6,7=101,11=2,16=1,25=1,30=1,71=1,74=-5,75=-5/1,2,3;
 4//1;
 5/5=2,38=5/2;
 6/7=2,8=2,9=2,10=2,28=1/1;
 7//1,2,3,16;
 1/14=-1,18=20,19=15,26=4/3(2);
 2/9=110/2;
 99//99;
 2/9=110/2;
 3/5=1,6=6,7=101,11=2,16=1,25=1,30=1,71=1,74=-5,75=-5/1,2,3;
 4/5=5,16=3,69=1/1;
 5/5=2,38=5/2;
 7//1,2,3,16;
 1/14=-1,18=20,19=15,26=4/3(-5);
 2/9=110/2;
 6/7=2,8=2,9=2,10=2,19=2,28=1/1;
 99/9=1/99;
 ------
 co2 12
 ------
 Symbolic Z-matrix:
 Charge =  0 Multiplicity = 1
 C(Iso=12)             0.        0.        0. 
 O                     0.        0.        1.45 
 O                     0.        0.       -1.45 
 

 GradGradGradGradGradGradGradGradGradGradGradGradGradGradGradGradGradGrad
 Berny optimization.
 Initialization pass.
                           ----------------------------
                           !    Initial Parameters    !
                           ! (Angstroms and Degrees)  !
 --------------------------                            --------------------------
 ! Name  Definition              Value          Derivative Info.                !
 --------------------------------------------------------------------------------
 ! R1    R(1,2)                  1.45           estimate D2E/DX2                !
 ! R2    R(1,3)                  1.45           estimate D2E/DX2                !
 ! A1    L(2,1,3,-1,-1)        180.0            estimate D2E/DX2                !
 ! A2    L(2,1,3,-2,-2)        180.0            estimate D2E/DX2                !
 --------------------------------------------------------------------------------
 Trust Radius=3.00D-01 FncErr=1.00D-07 GrdErr=1.00D-06
 Number of steps in this run=     20 maximum allowed number of steps=    100.
 GradGradGradGradGradGradGradGradGradGradGradGradGradGradGradGradGradGrad

                          Input orientation:                          
 ---------------------------------------------------------------------
 Center     Atomic      Atomic             Coordinates (Angstroms)
 Number     Number       Type             X           Y           Z
 ---------------------------------------------------------------------
      1          6           0        0.000000    0.000000    0.000000
      2          8           0        0.000000    0.000000    1.450000
      3          8           0        0.000000    0.000000   -1.450000
 ---------------------------------------------------------------------
                    Distance matrix (angstroms):
                    1          2          3
     1  C    0.000000
     2  O    1.450000   0.000000
     3  O    1.450000   2.900000   0.000000
 Stoichiometry    CO2
 Framework group  D*H[O(C),C*(O.O)]
 Deg. of freedom     1
 Full point group                 D*H     NOp   8
 Largest Abelian subgroup         D2H     NOp   8
 Largest concise Abelian subgroup C2      NOp   2
                         Standard orientation:                         
 ---------------------------------------------------------------------
 Center     Atomic      Atomic             Coordinates (Angstroms)
 Number     Number       Type             X           Y           Z
 ---------------------------------------------------------------------
      1          6           0        0.000000    0.000000    0.000000
      2          8           0        0.000000    0.000000    1.450000
      3          8           0        0.000000    0.000000   -1.450000
 ---------------------------------------------------------------------
 Rotational constants (GHZ):      0.0000000      7.5139668      7.5139668
 Standard basis: 6-31G(d,p) (6D, 7F)
 There are    14 symmetry adapted cartesian basis functions of AG  symmetry.
 There are     2 symmetry adapted cartesian basis functions of B1G symmetry.
 There are     4 symmetry adapted cartesian basis functions of B2G symmetry.
 There are     4 symmetry adapted cartesian basis functions of B3G symmetry.
 There are     1 symmetry adapted cartesian basis functions of AU  symmetry.
 There are    10 symmetry adapted cartesian basis functions of B1U symmetry.
 There are     5 symmetry adapted cartesian basis functions of B2U symmetry.
 There are     5 symmetry adapted cartesian basis functions of B3U symmetry.
 There are    14 symmetry adapted basis functions of AG  symmetry.
 There are     2 symmetry adapted basis functions of B1G symmetry.
 There are     4 symmetry adapted basis functions of B2G symmetry.
 There are     4 symmetry adapted basis functions of B3G symmetry.
 There are     1 symmetry adapted basis functions of AU  symmetry.
 There are    10 symmetry adapted basis functions of B1U symmetry.
 There are     5 symmetry adapted basis functions of B2U symmetry.
 There are     5 symmetry adapted basis functions of B3U symmetry.
    45 basis functions,    84 primitive gaussians,    45 cartesian basis functions
    11 alpha electrons       11 beta electrons
       nuclear repulsion energy        46.7135742755 Hartrees.
 NAtoms=    3 NActive=    3 NUniq=    2 SFac= 2.25D+00 NAtFMM=   60 NAOKFM=F Big=F
 Integral buffers will be    131072 words long.
 Raffenetti 2 integral format.
 Two-electron integral symmetry is turned on.
 One-electron integrals computed using PRISM.
 NBasis=    45 RedAO= T EigKep=  7.38D-03  NBF=    14     2     4     4     1    10     5     5
 NBsUse=    45 1.00D-06 EigRej= -1.00D+00 NBFU=    14     2     4     4     1    10     5     5
 ExpMin= 1.69D-01 ExpMax= 5.48D+03 ExpMxC= 8.25D+02 IAcc=3 IRadAn=         5 AccDes= 0.00D+00
 Harris functional with IExCor=  402 and IRadAn=       5 diagonalized for initial guess.
 HarFok:  IExCor=  402 AccDes= 0.00D+00 IRadAn=         5 IDoV= 1 UseB2=F ITyADJ=14
 ICtDFT=  3500011 ScaDFX=  1.000000  1.000000  1.000000  1.000000
 FoFCou: FMM=F IPFlag=           0 FMFlag=      100000 FMFlg1=           0
         NFxFlg=           0 DoJE=T BraDBF=F KetDBF=T FulRan=T
         wScrn=  0.000000 ICntrl=     500 IOpCl=  0 I1Cent=   200000004 NGrid=           0
         NMat0=    1 NMatS0=      1 NMatT0=    0 NMatD0=    1 NMtDS0=    0 NMtDT0=    0
 Petite list used in FoFCou.
 Initial guess orbital symmetries:
       Occupied  (SGU) (SGG) (SGG) (SGG) (SGU) (SGG) (SGU) (PIU)
                 (PIU) (PIG) (PIG)
       Virtual   (SGG) (PIU) (PIU) (SGU) (SGU) (PIU) (PIU) (SGG)
                 (SGG) (PIG) (PIG) (SGU) (PIU) (PIU) (SGG) (PIG)
                 (PIG) (DLTG) (DLTG) (SGU) (DLTU) (DLTU) (PIU)
                 (PIU) (DLTG) (DLTG) (SGG) (PIG) (PIG) (SGU) (SGG)
                 (SGG) (SGU) (SGG)
 The electronic state of the initial guess is 1-SGG.
 Keep R1 ints in memory in symmetry-blocked form, NReq=1434024.
 Requested convergence on RMS density matrix=1.00D-08 within 128 cycles.
 Requested convergence on MAX density matrix=1.00D-06.
 Requested convergence on             energy=1.00D-06.
 No special actions if energy rises.
 Integral accuracy reduced to 1.0D-05 until final iterations.
 Initial convergence to 1.0D-05 achieved.  Increase integral accuracy.
 SCF Done:  E(RB3LYP) =  -188.406513925     A.U. after   11 cycles
            NFock= 11  Conv=0.39D-08     -V/T= 2.0153

 **********************************************************************

            Population analysis using the SCF density.

 **********************************************************************

 Orbital symmetries:
       Occupied  (SGU) (SGG) (SGG) (SGG) (SGU) (SGG) (SGU) (PIU)
                 (PIU) (PIG) (PIG)
       Virtual   (PIU) (PIU) (SGG) (SGU) (SGU) (PIU) (PIU) (SGG)
                 (SGG) (PIG) (PIG) (SGU) (PIU) (PIU) (SGG) (PIG)
                 (PIG) (DLTG) (DLTG) (SGU) (DLTU) (DLTU) (DLTG)
                 (DLTG) (PIU) (PIU) (SGG) (PIG) (PIG) (SGU) (SGG)
                 (SGG) (SGU) (SGG)
 The electronic state is 1-SGG.
 Alpha  occ. eigenvalues --  -19.27767 -19.27766 -10.45953  -1.04588  -1.01611
 Alpha  occ. eigenvalues --   -0.60558  -0.49535  -0.43654  -0.43654  -0.35886
 Alpha  occ. eigenvalues --   -0.35886
 Alpha virt. eigenvalues --   -0.11139  -0.11139  -0.08946   0.28944   0.46125
 Alpha virt. eigenvalues --    0.49314   0.49314   0.50467   0.81322   0.84162
 Alpha virt. eigenvalues --    0.84162   0.89917   0.98059   0.98059   1.25208
 Alpha virt. eigenvalues --    1.31320   1.31320   1.49897   1.49897   1.70665
 Alpha virt. eigenvalues --    1.74818   1.74818   1.84785   1.84785   1.86195
 Alpha virt. eigenvalues --    1.86195   1.90795   2.46270   2.46270   2.53239
 Alpha virt. eigenvalues --    2.90728   3.45999   4.10540   4.16779
          Condensed to atoms (all electrons):
               1          2          3
     1  C    4.590157   0.345422   0.345422
     2  O    0.345422   8.030121  -0.016044
     3  O    0.345422  -0.016044   8.030121
 Mulliken charges:
               1
     1  C    0.718998
     2  O   -0.359499
     3  O   -0.359499
 Sum of Mulliken charges =   0.00000
 Mulliken charges with hydrogens summed into heavy atoms:
               1
     1  C    0.718998
     2  O   -0.359499
     3  O   -0.359499
 Electronic spatial extent (au):  <R**2>=            157.5860
 Charge=              0.0000 electrons
 Dipole moment (field-independent basis, Debye):
    X=              0.0000    Y=              0.0000    Z=              0.0000  Tot=              0.0000
 Quadrupole moment (field-independent basis, Debye-Ang):
   XX=            -15.5348   YY=            -15.5348   ZZ=            -19.3092
   XY=              0.0000   XZ=              0.0000   YZ=              0.0000
 Traceless Quadrupole moment (field-independent basis, Debye-Ang):
   XX=              1.2581   YY=              1.2581   ZZ=             -2.5163
   XY=              0.0000   XZ=              0.0000   YZ=              0.0000
 Octapole moment (field-independent basis, Debye-Ang**2):
  XXX=              0.0000  YYY=              0.0000  ZZZ=              0.0000  XYY=              0.0000
  XXY=              0.0000  XXZ=              0.0000  XZZ=              0.0000  YZZ=              0.0000
  YYZ=              0.0000  XYZ=              0.0000
 Hexadecapole moment (field-independent basis, Debye-Ang**3):
 XXXX=            -11.9801 YYYY=            -11.9801 ZZZZ=           -143.1222 XXXY=              0.0000
 XXXZ=              0.0000 YYYX=              0.0000 YYYZ=              0.0000 ZZZX=              0.0000
 ZZZY=              0.0000 XXYY=             -3.9934 XXZZ=            -26.6743 YYZZ=            -26.6743
 XXYZ=              0.0000 YYXZ=              0.0000 ZZXY=              0.0000
 N-N= 4.671357427553D+01 E-N=-5.353951788058D+02  KE= 1.855657748515D+02
 Symmetry AG   KE= 1.001362984449D+02
 Symmetry B1G  KE= 3.188313903598D-34
 Symmetry B2G  KE= 4.842737229359D+00
 Symmetry B3G  KE= 4.842737229359D+00
 Symmetry AU   KE= 7.070340563750D-35
 Symmetry B1U  KE= 6.845221451346D+01
 Symmetry B2U  KE= 3.645893717183D+00
 Symmetry B3U  KE= 3.645893717183D+00
 Calling FoFJK, ICntrl=      2127 FMM=F ISym2X=1 I1Cent= 0 IOpClX= 0 NMat=1 NMatS=1 NMatT=0.
 ***** Axes restored to original set *****
 -------------------------------------------------------------------
 Center     Atomic                   Forces (Hartrees/Bohr)
 Number     Number              X              Y              Z
 -------------------------------------------------------------------
      1        6           0.000000000    0.000000000    0.000000000
      2        8           0.000000000    0.000000000   -0.235566342
      3        8           0.000000000    0.000000000    0.235566342
 -------------------------------------------------------------------
 Cartesian Forces:  Max     0.235566342 RMS     0.111047039

 GradGradGradGradGradGradGradGradGradGradGradGradGradGradGradGradGradGrad
 Berny optimization.
 FormGI is forming the generalized inverse of G from B-inverse, IUseBI=4.
 Internal  Forces:  Max     0.235566342 RMS     0.166570558
 Search for a local minimum.
 Step number   1 out of a maximum of   20
 All quantities printed in internal units (Hartrees-Bohrs-Radians)
 Mixed Optimization -- RFO/linear search
 Second derivative matrix not updated -- first step.
 The second derivative matrix:
                          R1        R2        A1        A2
           R1           0.38245
           R2           0.00000   0.38245
           A1           0.00000   0.00000   0.01030
           A2           0.00000   0.00000   0.00000   0.01030
 ITU=  0
     Eigenvalues ---    0.01030   0.01030   0.38245   0.38245
 RFO step:  Lambda=-1.92897500D-01 EMin= 1.03037616D-02
 Linear search not attempted -- first point.
 Maximum step size (   0.300) exceeded in Quadratic search.
    -- Step size scaled by   0.518
 Iteration  1 RMS(Cart)=  0.14142136 RMS(Int)=  0.00857864
 Iteration  2 RMS(Cart)=  0.00857864 RMS(Int)=  0.00000000
 Iteration  3 RMS(Cart)=  0.00000000 RMS(Int)=  0.00000000
 ClnCor:  largest displacement from symmetrization is 4.07D-14 for atom     1.
 Variable       Old X    -DE/DX   Delta X   Delta X   Delta X     New X
                                 (Linear)    (Quad)   (Total)
    R1        2.74010  -0.23557   0.00000  -0.21213  -0.21213   2.52797
    R2        2.74010  -0.23557   0.00000  -0.21213  -0.21213   2.52797
    A1        3.14159   0.00000   0.00000   0.00000   0.00000   3.14159
    A2        3.14159   0.00000   0.00000   0.00000   0.00000   3.14159
         Item               Value     Threshold  Converged?
 Maximum Force            0.235566     0.000450     NO 
 RMS     Force            0.166571     0.000300     NO 
 Maximum Displacement     0.212132     0.001800     NO 
 RMS     Displacement     0.150000     0.001200     NO 
 Predicted change in Energy=-8.273211D-02
 GradGradGradGradGradGradGradGradGradGradGradGradGradGradGradGradGradGrad

                          Input orientation:                          
 ---------------------------------------------------------------------
 Center     Atomic      Atomic             Coordinates (Angstroms)
 Number     Number       Type             X           Y           Z
 ---------------------------------------------------------------------
      1          6           0        0.000000    0.000000    0.000000
      2          8           0        0.000000    0.000000    1.337745
      3          8           0        0.000000    0.000000   -1.337745
 ---------------------------------------------------------------------
                    Distance matrix (angstroms):
                    1          2          3
     1  C    0.000000
     2  O    1.337745   0.000000
     3  O    1.337745   2.675489   0.000000
 Stoichiometry    CO2
 Framework group  D*H[O(C),C*(O.O)]
 Deg. of freedom     1
 Full point group                 D*H     NOp   8
 Largest Abelian subgroup         D2H     NOp   8
 Largest concise Abelian subgroup C2      NOp   2
                         Standard orientation:                         
 ---------------------------------------------------------------------
 Center     Atomic      Atomic             Coordinates (Angstroms)
 Number     Number       Type             X           Y           Z
 ---------------------------------------------------------------------
      1          6           0        0.000000    0.000000    0.000000
      2          8           0        0.000000    0.000000    1.337745
      3          8           0        0.000000    0.000000   -1.337745
 ---------------------------------------------------------------------
 Rotational constants (GHZ):      0.0000000      8.8279301      8.8279301
 Standard basis: 6-31G(d,p) (6D, 7F)
 There are    14 symmetry adapted cartesian basis functions of AG  symmetry.
 There are     2 symmetry adapted cartesian basis functions of B1G symmetry.
 There are     4 symmetry adapted cartesian basis functions of B2G symmetry.
 There are     4 symmetry adapted cartesian basis functions of B3G symmetry.
 There are     1 symmetry adapted cartesian basis functions of AU  symmetry.
 There are    10 symmetry adapted cartesian basis functions of B1U symmetry.
 There are     5 symmetry adapted cartesian basis functions of B2U symmetry.
 There are     5 symmetry adapted cartesian basis functions of B3U symmetry.
 There are    14 symmetry adapted basis functions of AG  symmetry.
 There are     2 symmetry adapted basis functions of B1G symmetry.
 There are     4 symmetry adapted basis functions of B2G symmetry.
 There are     4 symmetry adapted basis functions of B3G symmetry.
 There are     1 symmetry adapted basis functions of AU  symmetry.
 There are    10 symmetry adapted basis functions of B1U symmetry.
 There are     5 symmetry adapted basis functions of B2U symmetry.
 There are     5 symmetry adapted basis functions of B3U symmetry.
    45 basis functions,    84 primitive gaussians,    45 cartesian basis functions
    11 alpha electrons       11 beta electrons
       nuclear repulsion energy        50.6334950731 Hartrees.
 NAtoms=    3 NActive=    3 NUniq=    2 SFac= 2.25D+00 NAtFMM=   60 NAOKFM=F Big=F
 Integral buffers will be    131072 words long.
 Raffenetti 2 integral format.
 Two-electron integral symmetry is turned on.
 One-electron integrals computed using PRISM.
 NBasis=    45 RedAO= T EigKep=  5.58D-03  NBF=    14     2     4     4     1    10     5     5
 NBsUse=    45 1.00D-06 EigRej= -1.00D+00 NBFU=    14     2     4     4     1    10     5     5
 Initial guess from the checkpoint file:  "\\icnas1.cc.ic.ac.uk\dp1820\Gaussian\CO2_12.chk"
 B after Tr=     0.000000    0.000000    0.000000
         Rot=    1.000000    0.000000    0.000000    0.000000 Ang=   0.00 deg.
 Initial guess orbital symmetries:
       Occupied  (SGU) (SGG) (SGG) (SGG) (SGU) (SGG) (SGU) (PIU)
                 (PIU) (PIG) (PIG)
       Virtual   (SGG) (SGG) (SGG) (SGG) (DLTG) (SGG) (SGG) (DLTG)
                 (SGG) (SGG) (DLTG) (DLTG) (PIG) (PIG) (PIG) (PIG)
                 (PIG) (PIG) (DLTU) (SGU) (SGU) (SGU) (SGU) (DLTU)
                 (SGU) (SGU) (PIU) (PIU) (PIU) (PIU) (PIU) (PIU)
                 (PIU) (PIU)
 ExpMin= 1.69D-01 ExpMax= 5.48D+03 ExpMxC= 8.25D+02 IAcc=2 IRadAn=         4 AccDes= 0.00D+00
 Harris functional with IExCor=  402 and IRadAn=       4 diagonalized for initial guess.
 HarFok:  IExCor=  402 AccDes= 0.00D+00 IRadAn=         4 IDoV= 1 UseB2=F ITyADJ=14
 ICtDFT=  3500011 ScaDFX=  1.000000  1.000000  1.000000  1.000000
 FoFCou: FMM=F IPFlag=           0 FMFlag=      100000 FMFlg1=           0
         NFxFlg=           0 DoJE=T BraDBF=F KetDBF=T FulRan=T
         wScrn=  0.000000 ICntrl=     500 IOpCl=  0 I1Cent=   200000004 NGrid=           0
         NMat0=    1 NMatS0=      1 NMatT0=    0 NMatD0=    1 NMtDS0=    0 NMtDT0=    0
 Petite list used in FoFCou.
 Keep R1 ints in memory in symmetry-blocked form, NReq=1434024.
 Requested convergence on RMS density matrix=1.00D-08 within 128 cycles.
 Requested convergence on MAX density matrix=1.00D-06.
 Requested convergence on             energy=1.00D-06.
 No special actions if energy rises.
 Integral accuracy reduced to 1.0D-05 until final iterations.
 Initial convergence to 1.0D-05 achieved.  Increase integral accuracy.
 SCF Done:  E(RB3LYP) =  -188.501603737     A.U. after   10 cycles
            NFock= 10  Conv=0.47D-08     -V/T= 2.0141
 Calling FoFJK, ICntrl=      2127 FMM=F ISym2X=1 I1Cent= 0 IOpClX= 0 NMat=1 NMatS=1 NMatT=0.
 ***** Axes restored to original set *****
 -------------------------------------------------------------------
 Center     Atomic                   Forces (Hartrees/Bohr)
 Number     Number              X              Y              Z
 -------------------------------------------------------------------
      1        6           0.000000000    0.000000000    0.000000000
      2        8           0.000000000    0.000000000   -0.204217464
      3        8           0.000000000    0.000000000    0.204217464
 -------------------------------------------------------------------
 Cartesian Forces:  Max     0.204217464 RMS     0.096269036

 GradGradGradGradGradGradGradGradGradGradGradGradGradGradGradGradGradGrad
 Berny optimization.
 Using GEDIIS/GDIIS optimizer.
 Internal  Forces:  Max     0.204217464 RMS     0.144403553
 Search for a local minimum.
 Step number   2 out of a maximum of   20
 All quantities printed in internal units (Hartrees-Bohrs-Radians)
 Mixed Optimization -- RFO/linear search
 Update second derivatives using D2CorX and points    1    2
 DE= -9.51D-02 DEPred=-8.27D-02 R= 1.15D+00
 TightC=F SS=  1.41D+00  RLast= 3.00D-01 DXNew= 5.0454D-01 9.0000D-01
 Trust test= 1.15D+00 RLast= 3.00D-01 DXMaxT set to 5.05D-01
 The second derivative matrix:
                          R1        R2        A1        A2
           R1           0.26511
           R2          -0.11733   0.26511
           A1           0.00000   0.00000   0.01030
           A2           0.00000   0.00000   0.00000   0.01030
 ITU=  1  0
 Use linear search instead of GDIIS.
     Eigenvalues ---    0.01030   0.01030   0.14778   0.38245
 RFO step:  Lambda= 0.00000000D+00 EMin= 1.03037616D-02
 Quartic linear search produced a step of  1.53231.
 Iteration  1 RMS(Cart)=  0.14142136 RMS(Int)=  0.08842572
 Iteration  2 RMS(Cart)=  0.08842572 RMS(Int)=  0.00000000
 Iteration  3 RMS(Cart)=  0.00000000 RMS(Int)=  0.00000000
 ClnCor:  largest displacement from symmetrization is 1.79D-12 for atom     1.
 Variable       Old X    -DE/DX   Delta X   Delta X   Delta X     New X
                                 (Linear)    (Quad)   (Total)
    R1        2.52797  -0.20422  -0.32505   0.00000  -0.32505   2.20292
    R2        2.52797  -0.20422  -0.32505   0.00000  -0.32505   2.20292
    A1        3.14159   0.00000   0.00000   0.00000   0.00000   3.14159
    A2        3.14159   0.00000   0.00000   0.00000   0.00000   3.14159
         Item               Value     Threshold  Converged?
 Maximum Force            0.204217     0.000450     NO 
 RMS     Force            0.144404     0.000300     NO 
 Maximum Displacement     0.325053     0.001800     NO 
 RMS     Displacement     0.229847     0.001200     NO 
 Predicted change in Energy=-1.171486D-01
 GradGradGradGradGradGradGradGradGradGradGradGradGradGradGradGradGradGrad

                          Input orientation:                          
 ---------------------------------------------------------------------
 Center     Atomic      Atomic             Coordinates (Angstroms)
 Number     Number       Type             X           Y           Z
 ---------------------------------------------------------------------
      1          6           0        0.000000    0.000000    0.000000
      2          8           0        0.000000    0.000000    1.165734
      3          8           0        0.000000    0.000000   -1.165734
 ---------------------------------------------------------------------
                    Distance matrix (angstroms):
                    1          2          3
     1  C    0.000000
     2  O    1.165734   0.000000
     3  O    1.165734   2.331468   0.000000
 Stoichiometry    CO2
 Framework group  D*H[O(C),C*(O.O)]
 Deg. of freedom     1
 Full point group                 D*H     NOp   8
 Largest Abelian subgroup         D2H     NOp   8
 Largest concise Abelian subgroup C2      NOp   2
                         Standard orientation:                         
 ---------------------------------------------------------------------
 Center     Atomic      Atomic             Coordinates (Angstroms)
 Number     Number       Type             X           Y           Z
 ---------------------------------------------------------------------
      1          6           0        0.000000    0.000000    0.000000
      2          8           0        0.000000    0.000000    1.165734
      3          8           0        0.000000    0.000000   -1.165734
 ---------------------------------------------------------------------
 Rotational constants (GHZ):      0.0000000     11.6253583     11.6253583
 Standard basis: 6-31G(d,p) (6D, 7F)
 There are    14 symmetry adapted cartesian basis functions of AG  symmetry.
 There are     2 symmetry adapted cartesian basis functions of B1G symmetry.
 There are     4 symmetry adapted cartesian basis functions of B2G symmetry.
 There are     4 symmetry adapted cartesian basis functions of B3G symmetry.
 There are     1 symmetry adapted cartesian basis functions of AU  symmetry.
 There are    10 symmetry adapted cartesian basis functions of B1U symmetry.
 There are     5 symmetry adapted cartesian basis functions of B2U symmetry.
 There are     5 symmetry adapted cartesian basis functions of B3U symmetry.
 There are    14 symmetry adapted basis functions of AG  symmetry.
 There are     2 symmetry adapted basis functions of B1G symmetry.
 There are     4 symmetry adapted basis functions of B2G symmetry.
 There are     4 symmetry adapted basis functions of B3G symmetry.
 There are     1 symmetry adapted basis functions of AU  symmetry.
 There are    10 symmetry adapted basis functions of B1U symmetry.
 There are     5 symmetry adapted basis functions of B2U symmetry.
 There are     5 symmetry adapted basis functions of B3U symmetry.
    45 basis functions,    84 primitive gaussians,    45 cartesian basis functions
    11 alpha electrons       11 beta electrons
       nuclear repulsion energy        58.1047501432 Hartrees.
 NAtoms=    3 NActive=    3 NUniq=    2 SFac= 2.25D+00 NAtFMM=   60 NAOKFM=F Big=F
 Integral buffers will be    131072 words long.
 Raffenetti 2 integral format.
 Two-electron integral symmetry is turned on.
 One-electron integrals computed using PRISM.
 NBasis=    45 RedAO= T EigKep=  4.46D-03  NBF=    14     2     4     4     1    10     5     5
 NBsUse=    45 1.00D-06 EigRej= -1.00D+00 NBFU=    14     2     4     4     1    10     5     5
 Initial guess from the checkpoint file:  "\\icnas1.cc.ic.ac.uk\dp1820\Gaussian\CO2_12.chk"
 B after Tr=     0.000000    0.000000    0.000000
         Rot=    1.000000    0.000000    0.000000    0.000000 Ang=   0.00 deg.
 Initial guess orbital symmetries:
       Occupied  (SGU) (SGG) (SGG) (SGG) (SGU) (SGG) (SGU) (PIU)
                 (PIU) (PIG) (PIG)
       Virtual   (SGG) (SGG) (SGG) (SGG) (DLTG) (SGG) (DLTG) (SGG)
                 (SGG) (SGG) (DLTG) (DLTG) (PIG) (PIG) (PIG) (PIG)
                 (PIG) (PIG) (DLTU) (SGU) (SGU) (SGU) (SGU) (DLTU)
                 (SGU) (SGU) (PIU) (PIU) (PIU) (PIU) (PIU) (PIU)
                 (PIU) (PIU)
 ExpMin= 1.69D-01 ExpMax= 5.48D+03 ExpMxC= 8.25D+02 IAcc=2 IRadAn=         4 AccDes= 0.00D+00
 Harris functional with IExCor=  402 and IRadAn=       4 diagonalized for initial guess.
 HarFok:  IExCor=  402 AccDes= 0.00D+00 IRadAn=         4 IDoV= 1 UseB2=F ITyADJ=14
 ICtDFT=  3500011 ScaDFX=  1.000000  1.000000  1.000000  1.000000
 FoFCou: FMM=F IPFlag=           0 FMFlag=      100000 FMFlg1=           0
         NFxFlg=           0 DoJE=T BraDBF=F KetDBF=T FulRan=T
         wScrn=  0.000000 ICntrl=     500 IOpCl=  0 I1Cent=   200000004 NGrid=           0
         NMat0=    1 NMatS0=      1 NMatT0=    0 NMatD0=    1 NMtDS0=    0 NMtDT0=    0
 Petite list used in FoFCou.
 Keep R1 ints in memory in symmetry-blocked form, NReq=1434024.
 Requested convergence on RMS density matrix=1.00D-08 within 128 cycles.
 Requested convergence on MAX density matrix=1.00D-06.
 Requested convergence on             energy=1.00D-06.
 No special actions if energy rises.
 Integral accuracy reduced to 1.0D-05 until final iterations.
 Initial convergence to 1.0D-05 achieved.  Increase integral accuracy.
 SCF Done:  E(RB3LYP) =  -188.580891330     A.U. after   10 cycles
            NFock= 10  Conv=0.57D-08     -V/T= 2.0087
 Calling FoFJK, ICntrl=      2127 FMM=F ISym2X=1 I1Cent= 0 IOpClX= 0 NMat=1 NMatS=1 NMatT=0.
 ***** Axes restored to original set *****
 -------------------------------------------------------------------
 Center     Atomic                   Forces (Hartrees/Bohr)
 Number     Number              X              Y              Z
 -------------------------------------------------------------------
      1        6           0.000000000    0.000000000    0.000000000
      2        8           0.000000000    0.000000000    0.007464413
      3        8           0.000000000    0.000000000   -0.007464413
 -------------------------------------------------------------------
 Cartesian Forces:  Max     0.007464413 RMS     0.003518758

 GradGradGradGradGradGradGradGradGradGradGradGradGradGradGradGradGradGrad
 Berny optimization.
 Using GEDIIS/GDIIS optimizer.
 Internal  Forces:  Max     0.007464413 RMS     0.005278137
 Search for a local minimum.
 Step number   3 out of a maximum of   20
 All quantities printed in internal units (Hartrees-Bohrs-Radians)
 Mixed Optimization -- RFO/linear search
 Update second derivatives using D2CorX and points    2    3
 DE= -7.93D-02 DEPred=-1.17D-01 R= 6.77D-01
 TightC=F SS=  1.41D+00  RLast= 4.60D-01 DXNew= 8.4853D-01 1.3791D+00
 Trust test= 6.77D-01 RLast= 4.60D-01 DXMaxT set to 8.49D-01
 The second derivative matrix:
                          R1        R2        A1        A2
           R1           0.51684
           R2           0.13439   0.51684
           A1           0.00000   0.00000   0.01030
           A2           0.00000   0.00000   0.00000   0.01030
 ITU=  1  1  0
 Use linear search instead of GDIIS.
     Eigenvalues ---    0.01030   0.01030   0.38245   0.65122
 RFO step:  Lambda= 0.00000000D+00 EMin= 1.03037616D-02
 Quartic linear search produced a step of -0.02041.
 Iteration  1 RMS(Cart)=  0.00469133 RMS(Int)=  0.00000000
 Iteration  2 RMS(Cart)=  0.00000000 RMS(Int)=  0.00000000
 ClnCor:  largest displacement from symmetrization is 1.17D-12 for atom     1.
 Variable       Old X    -DE/DX   Delta X   Delta X   Delta X     New X
                                 (Linear)    (Quad)   (Total)
    R1        2.20292   0.00746   0.00663   0.00000   0.00663   2.20955
    R2        2.20292   0.00746   0.00663   0.00000   0.00663   2.20955
    A1        3.14159   0.00000   0.00000   0.00000   0.00000   3.14159
    A2        3.14159   0.00000   0.00000   0.00000   0.00000   3.14159
         Item               Value     Threshold  Converged?
 Maximum Force            0.007464     0.000450     NO 
 RMS     Force            0.005278     0.000300     NO 
 Maximum Displacement     0.006635     0.001800     NO 
 RMS     Displacement     0.004691     0.001200     NO 
 Predicted change in Energy=-7.038093D-05
 GradGradGradGradGradGradGradGradGradGradGradGradGradGradGradGradGradGrad

                          Input orientation:                          
 ---------------------------------------------------------------------
 Center     Atomic      Atomic             Coordinates (Angstroms)
 Number     Number       Type             X           Y           Z
 ---------------------------------------------------------------------
      1          6           0        0.000000    0.000000    0.000000
      2          8           0        0.000000    0.000000    1.169245
      3          8           0        0.000000    0.000000   -1.169245
 ---------------------------------------------------------------------
                    Distance matrix (angstroms):
                    1          2          3
     1  C    0.000000
     2  O    1.169245   0.000000
     3  O    1.169245   2.338490   0.000000
 Stoichiometry    CO2
 Framework group  D*H[O(C),C*(O.O)]
 Deg. of freedom     1
 Full point group                 D*H     NOp   8
 Largest Abelian subgroup         D2H     NOp   8
 Largest concise Abelian subgroup C2      NOp   2
                         Standard orientation:                         
 ---------------------------------------------------------------------
 Center     Atomic      Atomic             Coordinates (Angstroms)
 Number     Number       Type             X           Y           Z
 ---------------------------------------------------------------------
      1          6           0        0.000000    0.000000    0.000000
      2          8           0        0.000000    0.000000    1.169245
      3          8           0        0.000000    0.000000   -1.169245
 ---------------------------------------------------------------------
 Rotational constants (GHZ):      0.0000000     11.5556491     11.5556491
 Standard basis: 6-31G(d,p) (6D, 7F)
 There are    14 symmetry adapted cartesian basis functions of AG  symmetry.
 There are     2 symmetry adapted cartesian basis functions of B1G symmetry.
 There are     4 symmetry adapted cartesian basis functions of B2G symmetry.
 There are     4 symmetry adapted cartesian basis functions of B3G symmetry.
 There are     1 symmetry adapted cartesian basis functions of AU  symmetry.
 There are    10 symmetry adapted cartesian basis functions of B1U symmetry.
 There are     5 symmetry adapted cartesian basis functions of B2U symmetry.
 There are     5 symmetry adapted cartesian basis functions of B3U symmetry.
 There are    14 symmetry adapted basis functions of AG  symmetry.
 There are     2 symmetry adapted basis functions of B1G symmetry.
 There are     4 symmetry adapted basis functions of B2G symmetry.
 There are     4 symmetry adapted basis functions of B3G symmetry.
 There are     1 symmetry adapted basis functions of AU  symmetry.
 There are    10 symmetry adapted basis functions of B1U symmetry.
 There are     5 symmetry adapted basis functions of B2U symmetry.
 There are     5 symmetry adapted basis functions of B3U symmetry.
    45 basis functions,    84 primitive gaussians,    45 cartesian basis functions
    11 alpha electrons       11 beta electrons
       nuclear repulsion energy        57.9302812309 Hartrees.
 NAtoms=    3 NActive=    3 NUniq=    2 SFac= 2.25D+00 NAtFMM=   60 NAOKFM=F Big=F
 Integral buffers will be    131072 words long.
 Raffenetti 2 integral format.
 Two-electron integral symmetry is turned on.
 One-electron integrals computed using PRISM.
 NBasis=    45 RedAO= T EigKep=  4.48D-03  NBF=    14     2     4     4     1    10     5     5
 NBsUse=    45 1.00D-06 EigRej= -1.00D+00 NBFU=    14     2     4     4     1    10     5     5
 Initial guess from the checkpoint file:  "\\icnas1.cc.ic.ac.uk\dp1820\Gaussian\CO2_12.chk"
 B after Tr=     0.000000    0.000000    0.000000
         Rot=    1.000000    0.000000    0.000000    0.000000 Ang=   0.00 deg.
 Initial guess orbital symmetries:
       Occupied  (SGG) (SGU) (SGG) (SGG) (SGU) (SGG) (SGU) (PIU)
                 (PIU) (PIG) (PIG)
       Virtual   (SGG) (SGG) (SGG) (SGG) (DLTG) (SGG) (SGG) (DLTG)
                 (SGG) (SGG) (DLTG) (DLTG) (PIG) (PIG) (PIG) (PIG)
                 (PIG) (PIG) (DLTU) (SGU) (SGU) (SGU) (SGU) (DLTU)
                 (SGU) (SGU) (PIU) (PIU) (PIU) (PIU) (PIU) (PIU)
                 (PIU) (PIU)
 Keep R1 ints in memory in symmetry-blocked form, NReq=1434024.
 Requested convergence on RMS density matrix=1.00D-08 within 128 cycles.
 Requested convergence on MAX density matrix=1.00D-06.
 Requested convergence on             energy=1.00D-06.
 No special actions if energy rises.
 SCF Done:  E(RB3LYP) =  -188.580939421     A.U. after    7 cycles
            NFock=  7  Conv=0.24D-08     -V/T= 2.0089
 Calling FoFJK, ICntrl=      2127 FMM=F ISym2X=1 I1Cent= 0 IOpClX= 0 NMat=1 NMatS=1 NMatT=0.
 ***** Axes restored to original set *****
 -------------------------------------------------------------------
 Center     Atomic                   Forces (Hartrees/Bohr)
 Number     Number              X              Y              Z
 -------------------------------------------------------------------
      1        6           0.000000000    0.000000000    0.000000000
      2        8           0.000000000    0.000000000   -0.000184506
      3        8           0.000000000    0.000000000    0.000184506
 -------------------------------------------------------------------
 Cartesian Forces:  Max     0.000184506 RMS     0.000086977

 GradGradGradGradGradGradGradGradGradGradGradGradGradGradGradGradGradGrad
 Berny optimization.
 Using GEDIIS/GDIIS optimizer.
 Internal  Forces:  Max     0.000184506 RMS     0.000130465
 Search for a local minimum.
 Step number   4 out of a maximum of   20
 All quantities printed in internal units (Hartrees-Bohrs-Radians)
 Mixed Optimization -- En-DIIS/RFO-DIIS
 Update second derivatives using D2CorX and points    2    3    4
 DE= -4.81D-05 DEPred=-7.04D-05 R= 6.83D-01
 TightC=F SS=  1.41D+00  RLast= 9.38D-03 DXNew= 1.4270D+00 2.8148D-02
 Trust test= 6.83D-01 RLast= 9.38D-03 DXMaxT set to 8.49D-01
 The second derivative matrix:
                          R1        R2        A1        A2
           R1           0.76767
           R2           0.38522   0.76767
           A1           0.00000   0.00000   0.01030
           A2           0.00000   0.00000   0.00000   0.01030
 ITU=  1  1  1  0
 Use linear search instead of GDIIS.
     Eigenvalues ---    0.01030   0.01030   0.38245   1.15289
 RFO step:  Lambda= 0.00000000D+00 EMin= 1.03037616D-02
 Quartic linear search produced a step of -0.02441.
 Iteration  1 RMS(Cart)=  0.00011453 RMS(Int)=  0.00000000
 Iteration  2 RMS(Cart)=  0.00000000 RMS(Int)=  0.00000001
 ClnCor:  largest displacement from symmetrization is 1.17D-12 for atom     1.
 Variable       Old X    -DE/DX   Delta X   Delta X   Delta X     New X
                                 (Linear)    (Quad)   (Total)
    R1        2.20955  -0.00018  -0.00016   0.00000  -0.00016   2.20939
    R2        2.20955  -0.00018  -0.00016   0.00000  -0.00016   2.20939
    A1        3.14159   0.00000   0.00000   0.00000   0.00000   3.14159
    A2        3.14159   0.00000   0.00000   0.00000   0.00000   3.14159
         Item               Value     Threshold  Converged?
 Maximum Force            0.000185     0.000450     YES
 RMS     Force            0.000130     0.000300     YES
 Maximum Displacement     0.000162     0.001800     YES
 RMS     Displacement     0.000115     0.001200     YES
 Predicted change in Energy=-2.952342D-08
 Optimization completed.
    -- Stationary point found.
                           ----------------------------
                           !   Optimized Parameters   !
                           ! (Angstroms and Degrees)  !
 --------------------------                            --------------------------
 ! Name  Definition              Value          Derivative Info.                !
 --------------------------------------------------------------------------------
 ! R1    R(1,2)                  1.1692         -DE/DX =   -0.0002              !
 ! R2    R(1,3)                  1.1692         -DE/DX =   -0.0002              !
 ! A1    L(2,1,3,-1,-1)        180.0            -DE/DX =    0.0                 !
 ! A2    L(2,1,3,-2,-2)        180.0            -DE/DX =    0.0                 !
 --------------------------------------------------------------------------------
 GradGradGradGradGradGradGradGradGradGradGradGradGradGradGradGradGradGrad

                          Input orientation:                          
 ---------------------------------------------------------------------
 Center     Atomic      Atomic             Coordinates (Angstroms)
 Number     Number       Type             X           Y           Z
 ---------------------------------------------------------------------
      1          6           0        0.000000    0.000000    0.000000
      2          8           0        0.000000    0.000000    1.169245
      3          8           0        0.000000    0.000000   -1.169245
 ---------------------------------------------------------------------
                    Distance matrix (angstroms):
                    1          2          3
     1  C    0.000000
     2  O    1.169245   0.000000
     3  O    1.169245   2.338490   0.000000
 Stoichiometry    CO2
 Framework group  D*H[O(C),C*(O.O)]
 Deg. of freedom     1
 Full point group                 D*H     NOp   8
 Largest Abelian subgroup         D2H     NOp   8
 Largest concise Abelian subgroup C2      NOp   2
                         Standard orientation:                         
 ---------------------------------------------------------------------
 Center     Atomic      Atomic             Coordinates (Angstroms)
 Number     Number       Type             X           Y           Z
 ---------------------------------------------------------------------
      1          6           0        0.000000    0.000000    0.000000
      2          8           0        0.000000    0.000000    1.169245
      3          8           0        0.000000    0.000000   -1.169245
 ---------------------------------------------------------------------
 Rotational constants (GHZ):      0.0000000     11.5556491     11.5556491

 **********************************************************************

            Population analysis using the SCF density.

 **********************************************************************

 Orbital symmetries:
       Occupied  (SGG) (SGU) (SGG) (SGG) (SGU) (SGG) (SGU) (PIU)
                 (PIU) (PIG) (PIG)
       Virtual   (PIU) (PIU) (SGG) (SGU) (PIU) (PIU) (SGG) (SGU)
                 (SGG) (PIG) (PIG) (SGU) (PIU) (PIU) (SGG) (DLTG)
                 (DLTG) (PIG) (PIG) (DLTU) (DLTU) (SGU) (DLTG)
                 (DLTG) (PIU) (PIU) (SGG) (SGU) (PIG) (PIG) (SGG)
                 (SGG) (SGG) (SGU)
 The electronic state is 1-SGG.
 Alpha  occ. eigenvalues --  -19.23661 -19.23660 -10.38533  -1.16094  -1.11960
 Alpha  occ. eigenvalues --   -0.56235  -0.51655  -0.51274  -0.51274  -0.36997
 Alpha  occ. eigenvalues --   -0.36997
 Alpha virt. eigenvalues --    0.02986   0.02986   0.08429   0.36576   0.47262
 Alpha virt. eigenvalues --    0.47262   0.58429   0.73518   0.78154   0.87419
 Alpha virt. eigenvalues --    0.87419   1.03758   1.04163   1.04163   1.37738
 Alpha virt. eigenvalues --    1.39391   1.39391   1.40633   1.40633   1.72628
 Alpha virt. eigenvalues --    1.72628   1.83352   2.02754   2.02754   2.12093
 Alpha virt. eigenvalues --    2.12093   2.72046   2.91512   2.95386   2.95386
 Alpha virt. eigenvalues --    3.04917   3.74158   4.38875   4.44991
          Condensed to atoms (all electrons):
               1          2          3
     1  C    4.105673   0.587415   0.587415
     2  O    0.587415   7.793983  -0.021650
     3  O    0.587415  -0.021650   7.793983
 Mulliken charges:
               1
     1  C    0.719497
     2  O   -0.359748
     3  O   -0.359748
 Sum of Mulliken charges =   0.00000
 Mulliken charges with hydrogens summed into heavy atoms:
               1
     1  C    0.719497
     2  O   -0.359748
     3  O   -0.359748
 Electronic spatial extent (au):  <R**2>=            113.6648
 Charge=              0.0000 electrons
 Dipole moment (field-independent basis, Debye):
    X=              0.0000    Y=              0.0000    Z=              0.0000  Tot=              0.0000
 Quadrupole moment (field-independent basis, Debye-Ang):
   XX=            -14.4512   YY=            -14.4512   ZZ=            -18.9147
   XY=              0.0000   XZ=              0.0000   YZ=              0.0000
 Traceless Quadrupole moment (field-independent basis, Debye-Ang):
   XX=              1.4878   YY=              1.4878   ZZ=             -2.9756
   XY=              0.0000   XZ=              0.0000   YZ=              0.0000
 Octapole moment (field-independent basis, Debye-Ang**2):
  XXX=              0.0000  YYY=              0.0000  ZZZ=              0.0000  XYY=              0.0000
  XXY=              0.0000  XXZ=              0.0000  XZZ=              0.0000  YZZ=              0.0000
  YYZ=              0.0000  XYZ=              0.0000
 Hexadecapole moment (field-independent basis, Debye-Ang**3):
 XXXX=            -10.3570 YYYY=            -10.3570 ZZZZ=           -100.5068 XXXY=              0.0000
 XXXZ=              0.0000 YYYX=              0.0000 YYYZ=              0.0000 ZZZX=              0.0000
 ZZZY=              0.0000 XXYY=             -3.4523 XXZZ=            -18.0735 YYZZ=            -18.0735
 XXYZ=              0.0000 YYXZ=              0.0000 ZZXY=              0.0000
 N-N= 5.793028123093D+01 E-N=-5.588820318924D+02  KE= 1.869153536428D+02
 Symmetry AG   KE= 1.008890788817D+02
 Symmetry B1G  KE= 1.111615398401D-33
 Symmetry B2G  KE= 4.896479339153D+00
 Symmetry B3G  KE= 4.896479339153D+00
 Symmetry AU   KE= 1.942622916566D-34
 Symmetry B1U  KE= 6.901009143428D+01
 Symmetry B2U  KE= 3.611612324301D+00
 Symmetry B3U  KE= 3.611612324301D+00
 1|1| IMPERIAL COLLEGE-SKRS-G08-052|FOpt|RB3LYP|6-31G(d,p)|C1O2|DP1820|
 22-Jul-2021|0||# opt freq b3lyp/6-31g(d,p) geom=connectivity integral=
 grid=ultrafine||co2 12||0,1|C,0.,0.,0.|O,0.,0.,1.169244845|O,0.,0.,-1.
 169244845||Version=EM64W-G09RevD.01|State=1-SGG|HF=-188.5809394|RMSD=2
 .362e-009|RMSF=8.698e-005|Dipole=0.,0.,0.|Quadrupole=1.1061516,1.10615
 16,-2.2123033,0.,0.,0.|PG=D*H [O(C1),C*(O1.O1)]||@


 DESK:  A WASTEBASKET WITH DRAWERS.
 Job cpu time:       0 days  0 hours  3 minutes  1.0 seconds.
 File lengths (MBytes):  RWF=      5 Int=      0 D2E=      0 Chk=      1 Scr=      1
 Normal termination of Gaussian 09 at Thu Jul 22 15:43:51 2021.
 Link1:  Proceeding to internal job step number  2.
 ----------------------------------------------------------------------
 #N Geom=AllCheck Guess=TCheck SCRF=Check GenChk RB3LYP/6-31G(d,p) Freq
 ----------------------------------------------------------------------
 1/10=4,29=7,30=1,38=1,40=1/1,3;
 2/12=2,40=1/2;
 3/5=1,6=6,7=101,11=2,14=-4,16=1,25=1,30=1,70=2,71=2,74=-5,75=-5,116=1,140=1/1,2,3;
 4/5=101/1;
 5/5=2,98=1/2;
 8/6=4,10=90,11=11/1;
 11/6=1,8=1,9=11,15=111,16=1/1,2,10;
 10/6=1/2;
 6/7=2,8=2,9=2,10=2,18=1,28=1/1;
 7/8=1,10=1,25=1/1,2,3,16;
 1/10=4,30=1/3;
 99//99;
 Structure from the checkpoint file:  "\\icnas1.cc.ic.ac.uk\dp1820\Gaussian\CO2_12.chk"
 ------
 co2 12
 ------
 Charge =  0 Multiplicity = 1
 Redundant internal coordinates found in file.
 C,0,0.,0.,0.
 O,0,0.,0.,1.169244845
 O,0,0.,0.,-1.169244845
 Recover connectivity data from disk.

 GradGradGradGradGradGradGradGradGradGradGradGradGradGradGradGradGradGrad
 Berny optimization.
 Initialization pass.
                           ----------------------------
                           !    Initial Parameters    !
                           ! (Angstroms and Degrees)  !
 --------------------------                            --------------------------
 ! Name  Definition              Value          Derivative Info.                !
 --------------------------------------------------------------------------------
 ! R1    R(1,2)                  1.1692         calculate D2E/DX2 analytically  !
 ! R2    R(1,3)                  1.1692         calculate D2E/DX2 analytically  !
 ! A1    L(2,1,3,-1,-1)        180.0            calculate D2E/DX2 analytically  !
 ! A2    L(2,1,3,-2,-2)        180.0            calculate D2E/DX2 analytically  !
 --------------------------------------------------------------------------------
 Trust Radius=3.00D-01 FncErr=1.00D-07 GrdErr=1.00D-07
 Number of steps in this run=      2 maximum allowed number of steps=      2.
 GradGradGradGradGradGradGradGradGradGradGradGradGradGradGradGradGradGrad

                          Input orientation:                          
 ---------------------------------------------------------------------
 Center     Atomic      Atomic             Coordinates (Angstroms)
 Number     Number       Type             X           Y           Z
 ---------------------------------------------------------------------
      1          6           0        0.000000    0.000000    0.000000
      2          8           0        0.000000    0.000000    1.169245
      3          8           0        0.000000    0.000000   -1.169245
 ---------------------------------------------------------------------
                    Distance matrix (angstroms):
                    1          2          3
     1  C    0.000000
     2  O    1.169245   0.000000
     3  O    1.169245   2.338490   0.000000
 Stoichiometry    CO2
 Framework group  D*H[O(C),C*(O.O)]
 Deg. of freedom     1
 Full point group                 D*H     NOp   8
 Largest Abelian subgroup         D2H     NOp   8
 Largest concise Abelian subgroup C2      NOp   2
                         Standard orientation:                         
 ---------------------------------------------------------------------
 Center     Atomic      Atomic             Coordinates (Angstroms)
 Number     Number       Type             X           Y           Z
 ---------------------------------------------------------------------
      1          6           0        0.000000    0.000000    0.000000
      2          8           0        0.000000    0.000000    1.169245
      3          8           0        0.000000    0.000000   -1.169245
 ---------------------------------------------------------------------
 Rotational constants (GHZ):      0.0000000     11.5556491     11.5556491
 Standard basis: 6-31G(d,p) (6D, 7F)
 There are    14 symmetry adapted cartesian basis functions of AG  symmetry.
 There are     2 symmetry adapted cartesian basis functions of B1G symmetry.
 There are     4 symmetry adapted cartesian basis functions of B2G symmetry.
 There are     4 symmetry adapted cartesian basis functions of B3G symmetry.
 There are     1 symmetry adapted cartesian basis functions of AU  symmetry.
 There are    10 symmetry adapted cartesian basis functions of B1U symmetry.
 There are     5 symmetry adapted cartesian basis functions of B2U symmetry.
 There are     5 symmetry adapted cartesian basis functions of B3U symmetry.
 There are    14 symmetry adapted basis functions of AG  symmetry.
 There are     2 symmetry adapted basis functions of B1G symmetry.
 There are     4 symmetry adapted basis functions of B2G symmetry.
 There are     4 symmetry adapted basis functions of B3G symmetry.
 There are     1 symmetry adapted basis functions of AU  symmetry.
 There are    10 symmetry adapted basis functions of B1U symmetry.
 There are     5 symmetry adapted basis functions of B2U symmetry.
 There are     5 symmetry adapted basis functions of B3U symmetry.
    45 basis functions,    84 primitive gaussians,    45 cartesian basis functions
    11 alpha electrons       11 beta electrons
       nuclear repulsion energy        57.9302812309 Hartrees.
 NAtoms=    3 NActive=    3 NUniq=    2 SFac= 2.25D+00 NAtFMM=   60 NAOKFM=F Big=F
 Integral buffers will be    131072 words long.
 Raffenetti 2 integral format.
 Two-electron integral symmetry is turned on.
 One-electron integrals computed using PRISM.
 NBasis=    45 RedAO= T EigKep=  4.48D-03  NBF=    14     2     4     4     1    10     5     5
 NBsUse=    45 1.00D-06 EigRej= -1.00D+00 NBFU=    14     2     4     4     1    10     5     5
 Initial guess from the checkpoint file:  "\\icnas1.cc.ic.ac.uk\dp1820\Gaussian\CO2_12.chk"
 B after Tr=     0.000000    0.000000    0.000000
         Rot=    1.000000    0.000000    0.000000    0.000000 Ang=   0.00 deg.
 Initial guess orbital symmetries:
       Occupied  (SGG) (SGU) (SGG) (SGG) (SGU) (SGG) (SGU) (PIU)
                 (PIU) (PIG) (PIG)
       Virtual   (PIU) (PIU) (SGG) (SGU) (PIU) (PIU) (SGG) (SGU)
                 (SGG) (PIG) (PIG) (SGU) (PIU) (PIU) (SGG) (DLTG)
                 (DLTG) (PIG) (PIG) (DLTU) (DLTU) (SGU) (DLTG)
                 (DLTG) (PIU) (PIU) (SGG) (SGU) (PIG) (PIG) (SGG)
                 (SGG) (SGG) (SGU)
 Keep R1 ints in memory in symmetry-blocked form, NReq=1434024.
 Requested convergence on RMS density matrix=1.00D-08 within 128 cycles.
 Requested convergence on MAX density matrix=1.00D-06.
 Requested convergence on             energy=1.00D-06.
 No special actions if energy rises.
 SCF Done:  E(RB3LYP) =  -188.580939421     A.U. after    1 cycles
            NFock=  1  Conv=0.64D-09     -V/T= 2.0089
 DoSCS=F DFT=T ScalE2(SS,OS)=  1.000000  1.000000
 Range of M.O.s used for correlation:     1    45
 NBasis=    45 NAE=    11 NBE=    11 NFC=     0 NFV=     0
 NROrb=     45 NOA=    11 NOB=    11 NVA=    34 NVB=    34
 Symmetrizing basis deriv contribution to polar:
 IMax=3 JMax=2 DiffMx= 0.00D+00
 G2DrvN: will do     4 centers at a time, making    1 passes.
 Calling FoFCou, ICntrl=  3107 FMM=F I1Cent=   0 AccDes= 0.00D+00.
 End of G2Drv F.D. properties file   721 does not exist.
 End of G2Drv F.D. properties file   722 does not exist.
 End of G2Drv F.D. properties file   788 does not exist.
          IDoAtm=111
          Differentiating once with respect to electric field.
                with respect to dipole field.
          Differentiating once with respect to nuclear coordinates.
 Keep R1 ints in memory in symmetry-blocked form, NReq=1407035.
          There are     9 degrees of freedom in the 1st order CPHF.  IDoFFX=4 NUNeed=     9.
      9 vectors produced by pass  0 Test12= 4.16D-15 1.11D-08 XBig12= 2.64D+01 3.45D+00.
 AX will form     9 AO Fock derivatives at one time.
      9 vectors produced by pass  1 Test12= 4.16D-15 1.11D-08 XBig12= 9.64D+00 1.31D+00.
      9 vectors produced by pass  2 Test12= 4.16D-15 1.11D-08 XBig12= 3.76D-02 6.59D-02.
      9 vectors produced by pass  3 Test12= 4.16D-15 1.11D-08 XBig12= 1.47D-04 5.31D-03.
      9 vectors produced by pass  4 Test12= 4.16D-15 1.11D-08 XBig12= 4.55D-07 2.49D-04.
      7 vectors produced by pass  5 Test12= 4.16D-15 1.11D-08 XBig12= 5.02D-09 3.71D-05.
      2 vectors produced by pass  6 Test12= 4.16D-15 1.11D-08 XBig12= 2.51D-11 1.65D-06.
      1 vectors produced by pass  7 Test12= 4.16D-15 1.11D-08 XBig12= 1.74D-14 5.11D-08.
 InvSVY:  IOpt=1 It=  1 EMax= 3.79D-16
 Solved reduced A of dimension    55 with     9 vectors.
 Isotropic polarizability for W=    0.000000       12.49 Bohr**3.
 End of Minotr F.D. properties file   721 does not exist.
 End of Minotr F.D. properties file   722 does not exist.
 End of Minotr F.D. properties file   788 does not exist.

 **********************************************************************

            Population analysis using the SCF density.

 **********************************************************************

 Orbital symmetries:
       Occupied  (SGG) (SGU) (SGG) (SGG) (SGU) (SGG) (SGU) (PIU)
                 (PIU) (PIG) (PIG)
       Virtual   (PIU) (PIU) (SGG) (SGU) (PIU) (PIU) (SGG) (SGU)
                 (SGG) (PIG) (PIG) (SGU) (PIU) (PIU) (SGG) (DLTG)
                 (DLTG) (PIG) (PIG) (DLTU) (DLTU) (SGU) (DLTG)
                 (DLTG) (PIU) (PIU) (SGG) (SGU) (PIG) (PIG) (SGG)
                 (SGG) (SGG) (SGU)
 The electronic state is 1-SGG.
 Alpha  occ. eigenvalues --  -19.23661 -19.23660 -10.38533  -1.16094  -1.11960
 Alpha  occ. eigenvalues --   -0.56235  -0.51655  -0.51274  -0.51274  -0.36997
 Alpha  occ. eigenvalues --   -0.36997
 Alpha virt. eigenvalues --    0.02986   0.02986   0.08429   0.36576   0.47262
 Alpha virt. eigenvalues --    0.47262   0.58429   0.73518   0.78154   0.87419
 Alpha virt. eigenvalues --    0.87419   1.03758   1.04163   1.04163   1.37738
 Alpha virt. eigenvalues --    1.39391   1.39391   1.40633   1.40633   1.72628
 Alpha virt. eigenvalues --    1.72628   1.83352   2.02754   2.02754   2.12093
 Alpha virt. eigenvalues --    2.12093   2.72046   2.91512   2.95386   2.95386
 Alpha virt. eigenvalues --    3.04917   3.74158   4.38875   4.44991
          Condensed to atoms (all electrons):
               1          2          3
     1  C    4.105673   0.587415   0.587415
     2  O    0.587415   7.793983  -0.021650
     3  O    0.587415  -0.021650   7.793983
 Mulliken charges:
               1
     1  C    0.719497
     2  O   -0.359748
     3  O   -0.359748
 Sum of Mulliken charges =   0.00000
 Mulliken charges with hydrogens summed into heavy atoms:
               1
     1  C    0.719497
     2  O   -0.359748
     3  O   -0.359748
 APT charges:
               1
     1  C    1.086237
     2  O   -0.543118
     3  O   -0.543118
 Sum of APT charges =   0.00000
 APT charges with hydrogens summed into heavy atoms:
               1
     1  C    1.086237
     2  O   -0.543118
     3  O   -0.543118
 Electronic spatial extent (au):  <R**2>=            113.6648
 Charge=              0.0000 electrons
 Dipole moment (field-independent basis, Debye):
    X=              0.0000    Y=              0.0000    Z=              0.0000  Tot=              0.0000
 Quadrupole moment (field-independent basis, Debye-Ang):
   XX=            -14.4512   YY=            -14.4512   ZZ=            -18.9147
   XY=              0.0000   XZ=              0.0000   YZ=              0.0000
 Traceless Quadrupole moment (field-independent basis, Debye-Ang):
   XX=              1.4878   YY=              1.4878   ZZ=             -2.9756
   XY=              0.0000   XZ=              0.0000   YZ=              0.0000
 Octapole moment (field-independent basis, Debye-Ang**2):
  XXX=              0.0000  YYY=              0.0000  ZZZ=              0.0000  XYY=              0.0000
  XXY=              0.0000  XXZ=              0.0000  XZZ=              0.0000  YZZ=              0.0000
  YYZ=              0.0000  XYZ=              0.0000
 Hexadecapole moment (field-independent basis, Debye-Ang**3):
 XXXX=            -10.3570 YYYY=            -10.3570 ZZZZ=           -100.5068 XXXY=              0.0000
 XXXZ=              0.0000 YYYX=              0.0000 YYYZ=              0.0000 ZZZX=              0.0000
 ZZZY=              0.0000 XXYY=             -3.4523 XXZZ=            -18.0735 YYZZ=            -18.0735
 XXYZ=              0.0000 YYXZ=              0.0000 ZZXY=              0.0000
 N-N= 5.793028123093D+01 E-N=-5.588820315678D+02  KE= 1.869153534454D+02
 Symmetry AG   KE= 1.008890788537D+02
 Symmetry B1G  KE= 1.111615408919D-33
 Symmetry B2G  KE= 4.896479314240D+00
 Symmetry B3G  KE= 4.896479314240D+00
 Symmetry AU   KE= 1.942622986008D-34
 Symmetry B1U  KE= 6.901009138755D+01
 Symmetry B2U  KE= 3.611612287816D+00
 Symmetry B3U  KE= 3.611612287816D+00
  Exact polarizability:   7.689   0.000   7.689   0.000   0.000  22.079
 Approx polarizability:   9.915   0.000   9.915   0.000   0.000  46.793
 Calling FoFJK, ICntrl=    100127 FMM=F ISym2X=1 I1Cent= 0 IOpClX= 0 NMat=1 NMatS=1 NMatT=0.
 Full mass-weighted force constant matrix:
 Low frequencies ---    0.0011    0.0011    0.0011   11.6790   11.6790  640.2804
 Low frequencies ---  640.2804 1371.6088 2435.4834
 Diagonal vibrational polarizability:
        2.0159316       2.0159316       2.4756810
 Harmonic frequencies (cm**-1), IR intensities (KM/Mole), Raman scattering
 activities (A**4/AMU), depolarization ratios for plane and unpolarized
 incident light, reduced masses (AMU), force constants (mDyne/A),
 and normal coordinates:
                      1                      2                      3
                     PIU                    PIU                    SGG
 Frequencies --    640.2804               640.2804              1371.6088
 Red. masses --     12.8774                12.8774                15.9949
 Frc consts  --      3.1104                 3.1104                17.7293
 IR Inten    --     30.7102                30.7102                 0.0000
  Atom  AN      X      Y      Z        X      Y      Z        X      Y      Z
     1   6     0.00   0.88   0.00     0.88   0.00   0.00     0.00   0.00   0.00
     2   8     0.00  -0.33   0.00    -0.33   0.00   0.00     0.00   0.00   0.71
     3   8     0.00  -0.33   0.00    -0.33   0.00   0.00     0.00   0.00  -0.71
                      4
                     SGU
 Frequencies --   2435.4834
 Red. masses --     12.8774
 Frc consts  --     45.0036
 IR Inten    --    545.6723
  Atom  AN      X      Y      Z
     1   6     0.00   0.00   0.88
     2   8     0.00   0.00  -0.33
     3   8     0.00   0.00  -0.33

 -------------------
 - Thermochemistry -
 -------------------
 Temperature   298.150 Kelvin.  Pressure   1.00000 Atm.
 Atom     1 has atomic number  6 and mass  12.00000
 Atom     2 has atomic number  8 and mass  15.99491
 Atom     3 has atomic number  8 and mass  15.99491
 Molecular mass:    43.98983 amu.
 Principal axes and moments of inertia in atomic units:
                           1         2         3
     Eigenvalues --     0.00000 156.17826 156.17826
           X            0.00000   0.70711   0.70711
           Y            0.00000   0.70711  -0.70711
           Z            1.00000   0.00000   0.00000
 This molecule is a prolate symmetric top.
 Rotational symmetry number  2.
 Rotational temperature (Kelvin)      0.55458
 Rotational constant (GHZ):          11.555649
 Zero-point vibrational energy      30430.9 (Joules/Mol)
                                    7.27317 (Kcal/Mol)
 Vibrational temperatures:    921.22   921.22  1973.44  3504.11
          (Kelvin)
 
 Zero-point correction=                           0.011591 (Hartree/Particle)
 Thermal correction to Energy=                    0.014238
 Thermal correction to Enthalpy=                  0.015182
 Thermal correction to Gibbs Free Energy=        -0.009128
 Sum of electronic and zero-point Energies=           -188.569349
 Sum of electronic and thermal Energies=              -188.566702
 Sum of electronic and thermal Enthalpies=            -188.565758
 Sum of electronic and thermal Free Energies=         -188.590068
 
                     E (Thermal)             CV                S
                      KCal/Mol        Cal/Mol-Kelvin    Cal/Mol-Kelvin
 Total                    8.934              6.982             51.165
 Electronic               0.000              0.000              0.000
 Translational            0.889              2.981             37.270
 Rotational               0.592              1.987             13.104
 Vibrational              7.453              2.014              0.791
                       Q            Log10(Q)             Ln(Q)
 Total Bot       0.158017D+05          4.198704          9.667872
 Total V=0       0.338816D+10          9.529964         21.943553
 Vib (Bot)       0.512604D-05         -5.290218        -12.181178
 Vib (V=0)       0.109911D+01          0.041042          0.094503
 Electronic      0.100000D+01          0.000000          0.000000
 Translational   0.114679D+08          7.059484         16.255062
 Rotational      0.268806D+03          2.429438          5.593988
 ***** Axes restored to original set *****
 -------------------------------------------------------------------
 Center     Atomic                   Forces (Hartrees/Bohr)
 Number     Number              X              Y              Z
 -------------------------------------------------------------------
      1        6           0.000000000    0.000000000    0.000000000
      2        8           0.000000000    0.000000000   -0.000184496
      3        8           0.000000000    0.000000000    0.000184496
 -------------------------------------------------------------------
 Cartesian Forces:  Max     0.000184496 RMS     0.000086972
 FormGI is forming the generalized inverse of G from B-inverse, IUseBI=4.

 GradGradGradGradGradGradGradGradGradGradGradGradGradGradGradGradGradGrad
 Berny optimization.
 Internal  Forces:  Max     0.000184496 RMS     0.000130458
 Search for a local minimum.
 Step number   1 out of a maximum of    2
 All quantities printed in internal units (Hartrees-Bohrs-Radians)
 Second derivative matrix not updated -- analytic derivatives used.
 The second derivative matrix:
                          R1        R2        A1        A2
           R1           1.05910
           R2           0.07967   1.05910
           A1           0.00000   0.00000   0.16504
           A2           0.00000   0.00000   0.00000   0.16504
 ITU=  0
     Eigenvalues ---    0.16504   0.16504   0.97943   1.13876
 Angle between quadratic step and forces=   0.00 degrees.
 Linear search not attempted -- first point.
 Iteration  1 RMS(Cart)=  0.00011456 RMS(Int)=  0.00000000
 Iteration  2 RMS(Cart)=  0.00000000 RMS(Int)=  0.00000000
 ClnCor:  largest displacement from symmetrization is 5.07D-14 for atom     1.
 Variable       Old X    -DE/DX   Delta X   Delta X   Delta X     New X
                                 (Linear)    (Quad)   (Total)
    R1        2.20955  -0.00018   0.00000  -0.00016  -0.00016   2.20939
    R2        2.20955  -0.00018   0.00000  -0.00016  -0.00016   2.20939
    A1        3.14159   0.00000   0.00000   0.00000   0.00000   3.14159
    A2        3.14159   0.00000   0.00000   0.00000   0.00000   3.14159
         Item               Value     Threshold  Converged?
 Maximum Force            0.000184     0.000450     YES
 RMS     Force            0.000130     0.000300     YES
 Maximum Displacement     0.000162     0.001800     YES
 RMS     Displacement     0.000115     0.001200     YES
 Predicted change in Energy=-2.989100D-08
 Optimization completed.
    -- Stationary point found.
                           ----------------------------
                           !   Optimized Parameters   !
                           ! (Angstroms and Degrees)  !
 --------------------------                            --------------------------
 ! Name  Definition              Value          Derivative Info.                !
 --------------------------------------------------------------------------------
 ! R1    R(1,2)                  1.1692         -DE/DX =   -0.0002              !
 ! R2    R(1,3)                  1.1692         -DE/DX =   -0.0002              !
 ! A1    L(2,1,3,-1,-1)        180.0            -DE/DX =    0.0                 !
 ! A2    L(2,1,3,-2,-2)        180.0            -DE/DX =    0.0                 !
 --------------------------------------------------------------------------------
 GradGradGradGradGradGradGradGradGradGradGradGradGradGradGradGradGradGrad

 1|1| IMPERIAL COLLEGE-SKRS-G08-052|Freq|RB3LYP|6-31G(d,p)|C1O2|DP1820|
 22-Jul-2021|0||#N Geom=AllCheck Guess=TCheck SCRF=Check GenChk RB3LYP/
 6-31G(d,p) Freq||co2 12||0,1|C,0.,0.,0.|O,0.,0.,1.169244845|O,0.,0.,-1
 .169244845||Version=EM64W-G09RevD.01|State=1-SGG|HF=-188.5809394|RMSD=
 6.384e-010|RMSF=8.697e-005|ZeroPoint=0.0115905|Thermal=0.0142376|Dipol
 e=0.,0.,0.|DipoleDeriv=0.5243079,0.,0.,0.,0.5243079,0.,0.,0.,2.2100941
 ,-0.2621539,0.,0.,0.,-0.2621539,0.,0.,0.,-1.1050471,-0.2621539,0.,0.,0
 .,-0.2621539,0.,0.,0.,-1.1050471|Polar=7.6889731,0.,7.6889731,0.,0.,22
 .0787729|PG=D*H [O(C1),C*(O1.O1)]|NImag=0||0.13538568,0.,0.13538568,0.
 ,0.,1.95885680,-0.06769284,0.,0.,0.03388770,0.,-0.06769284,0.,0.,0.033
 88770,0.,0.,-0.97942840,0.,0.,1.05909642,-0.06769284,0.,0.,0.03380514,
 0.,0.,0.03388770,0.,-0.06769284,0.,0.,0.03380514,0.,0.,0.03388770,0.,0
 .,-0.97942840,0.,0.,-0.07966801,0.,0.,1.05909642||0.,0.,0.,0.,0.,0.000
 18450,0.,0.,-0.00018450|||@


 PICNIC:  A SNACK IN THE GRASS.
 Job cpu time:       0 days  0 hours  0 minutes 14.0 seconds.
 File lengths (MBytes):  RWF=      5 Int=      0 D2E=      0 Chk=      1 Scr=      1
 Normal termination of Gaussian 09 at Thu Jul 22 15:44:06 2021.
